+ 0.5 0 1 tcp 40 ------- 1 0.0 2.0 0 0
- 0.5 0 1 tcp 40 ------- 1 0.0 2.0 0 0
+ 0.5 0 1 tcp 40 ------- 2 0.1 3.0 0 1
- 0.50016 0 1 tcp 40 ------- 2 0.1 3.0 0 1
r 0.60016 0 1 tcp 40 ------- 1 0.0 2.0 0 0
+ 0.60016 1 2 tcp 40 ------- 1 0.0 2.0 0 0
- 0.60016 1 2 tcp 40 ------- 1 0.0 2.0 0 0
r 0.60032 0 1 tcp 40 ------- 2 0.1 3.0 0 1
+ 0.60032 1 3 tcp 40 ------- 2 0.1 3.0 0 1
- 0.60032 1 3 tcp 40 ------- 2 0.1 3.0 0 1
r 0.70192 1 3 tcp 40 ------- 2 0.1 3.0 0 1
+ 0.70192 3 1 ack 40 ------- 2 3.0 0.1 0 2
- 0.70192 3 1 ack 40 ------- 2 3.0 0.1 0 2
r 0.70336 1 2 tcp 40 ------- 1 0.0 2.0 0 0
+ 0.70336 2 1 ack 40 ------- 1 2.0 0.0 0 3
- 0.70336 2 1 ack 40 ------- 1 2.0 0.0 0 3
r 0.80352 3 1 ack 40 ------- 2 3.0 0.1 0 2
+ 0.80352 1 0 ack 40 ------- 2 3.0 0.1 0 2
- 0.80352 1 0 ack 40 ------- 2 3.0 0.1 0 2
r 0.80656 2 1 ack 40 ------- 1 2.0 0.0 0 3
+ 0.80656 1 0 ack 40 ------- 1 2.0 0.0 0 3
- 0.80656 1 0 ack 40 ------- 1 2.0 0.0 0 3
r 0.90368 1 0 ack 40 ------- 2 3.0 0.1 0 2
+ 0.90368 0 1 tcp 1040 ------- 2 0.1 3.0 1 4
- 0.90368 0 1 tcp 1040 ------- 2 0.1 3.0 1 4
+ 0.90368 0 1 tcp 1040 ------- 2 0.1 3.0 2 5
r 0.90672 1 0 ack 40 ------- 1 2.0 0.0 0 3
+ 0.90672 0 1 tcp 1040 ------- 1 0.0 2.0 1 6
+ 0.90672 0 1 tcp 1040 ------- 1 0.0 2.0 2 7
- 0.90784 0 1 tcp 1040 ------- 2 0.1 3.0 2 5
- 0.912 0 1 tcp 1040 ------- 1 0.0 2.0 1 6
- 0.91616 0 1 tcp 1040 ------- 1 0.0 2.0 2 7
r 1.00784 0 1 tcp 1040 ------- 2 0.1 3.0 1 4
+ 1.00784 1 3 tcp 1040 ------- 2 0.1 3.0 1 4
- 1.00784 1 3 tcp 1040 ------- 2 0.1 3.0 1 4
r 1.012 0 1 tcp 1040 ------- 2 0.1 3.0 2 5
+ 1.012 1 3 tcp 1040 ------- 2 0.1 3.0 2 5
r 1.01616 0 1 tcp 1040 ------- 1 0.0 2.0 1 6
+ 1.01616 1 2 tcp 1040 ------- 1 0.0 2.0 1 6
- 1.01616 1 2 tcp 1040 ------- 1 0.0 2.0 1 6
r 1.02032 0 1 tcp 1040 ------- 1 0.0 2.0 2 7
+ 1.02032 1 2 tcp 1040 ------- 1 0.0 2.0 2 7
- 1.04944 1 3 tcp 1040 ------- 2 0.1 3.0 2 5
- 1.09936 1 2 tcp 1040 ------- 1 0.0 2.0 2 7
r 1.14944 1 3 tcp 1040 ------- 2 0.1 3.0 1 4
+ 1.14944 3 1 ack 40 ------- 2 3.0 0.1 1 8
- 1.14944 3 1 ack 40 ------- 2 3.0 0.1 1 8
r 1.19104 1 3 tcp 1040 ------- 2 0.1 3.0 2 5
+ 1.19104 3 1 ack 40 ------- 2 3.0 0.1 2 9
- 1.19104 3 1 ack 40 ------- 2 3.0 0.1 2 9
r 1.19936 1 2 tcp 1040 ------- 1 0.0 2.0 1 6
+ 1.19936 2 1 ack 40 ------- 1 2.0 0.0 1 10
- 1.19936 2 1 ack 40 ------- 1 2.0 0.0 1 10
r 1.25104 3 1 ack 40 ------- 2 3.0 0.1 1 8
+ 1.25104 1 0 ack 40 ------- 2 3.0 0.1 1 8
- 1.25104 1 0 ack 40 ------- 2 3.0 0.1 1 8
r 1.28256 1 2 tcp 1040 ------- 1 0.0 2.0 2 7
+ 1.28256 2 1 ack 40 ------- 1 2.0 0.0 2 11
- 1.28256 2 1 ack 40 ------- 1 2.0 0.0 2 11
r 1.29264 3 1 ack 40 ------- 2 3.0 0.1 2 9
+ 1.29264 1 0 ack 40 ------- 2 3.0 0.1 2 9
- 1.29264 1 0 ack 40 ------- 2 3.0 0.1 2 9
r 1.30256 2 1 ack 40 ------- 1 2.0 0.0 1 10
+ 1.30256 1 0 ack 40 ------- 1 2.0 0.0 1 10
- 1.30256 1 0 ack 40 ------- 1 2.0 0.0 1 10
r 1.3512 1 0 ack 40 ------- 2 3.0 0.1 1 8
+ 1.3512 0 1 tcp 1040 ------- 2 0.1 3.0 3 12
- 1.3512 0 1 tcp 1040 ------- 2 0.1 3.0 3 12
+ 1.3512 0 1 tcp 1040 ------- 2 0.1 3.0 4 13
- 1.35536 0 1 tcp 1040 ------- 2 0.1 3.0 4 13
r 1.38576 2 1 ack 40 ------- 1 2.0 0.0 2 11
+ 1.38576 1 0 ack 40 ------- 1 2.0 0.0 2 11
- 1.38576 1 0 ack 40 ------- 1 2.0 0.0 2 11
r 1.3928 1 0 ack 40 ------- 2 3.0 0.1 2 9
+ 1.3928 0 1 tcp 1040 ------- 2 0.1 3.0 5 14
- 1.3928 0 1 tcp 1040 ------- 2 0.1 3.0 5 14
+ 1.3928 0 1 tcp 1040 ------- 2 0.1 3.0 6 15
- 1.39696 0 1 tcp 1040 ------- 2 0.1 3.0 6 15
r 1.40272 1 0 ack 40 ------- 1 2.0 0.0 1 10
+ 1.40272 0 1 tcp 1040 ------- 1 0.0 2.0 3 16
- 1.40272 0 1 tcp 1040 ------- 1 0.0 2.0 3 16
+ 1.40272 0 1 tcp 1040 ------- 1 0.0 2.0 4 17
- 1.40688 0 1 tcp 1040 ------- 1 0.0 2.0 4 17
r 1.45536 0 1 tcp 1040 ------- 2 0.1 3.0 3 12
+ 1.45536 1 3 tcp 1040 ------- 2 0.1 3.0 3 12
- 1.45536 1 3 tcp 1040 ------- 2 0.1 3.0 3 12
r 1.45952 0 1 tcp 1040 ------- 2 0.1 3.0 4 13
+ 1.45952 1 3 tcp 1040 ------- 2 0.1 3.0 4 13
r 1.48592 1 0 ack 40 ------- 1 2.0 0.0 2 11
+ 1.48592 0 1 tcp 1040 ------- 1 0.0 2.0 5 18
- 1.48592 0 1 tcp 1040 ------- 1 0.0 2.0 5 18
+ 1.48592 0 1 tcp 1040 ------- 1 0.0 2.0 6 19
- 1.49008 0 1 tcp 1040 ------- 1 0.0 2.0 6 19
r 1.49696 0 1 tcp 1040 ------- 2 0.1 3.0 5 14
+ 1.49696 1 3 tcp 1040 ------- 2 0.1 3.0 5 14
- 1.49696 1 3 tcp 1040 ------- 2 0.1 3.0 4 13
r 1.50112 0 1 tcp 1040 ------- 2 0.1 3.0 6 15
+ 1.50112 1 3 tcp 1040 ------- 2 0.1 3.0 6 15
r 1.50688 0 1 tcp 1040 ------- 1 0.0 2.0 3 16
+ 1.50688 1 2 tcp 1040 ------- 1 0.0 2.0 3 16
- 1.50688 1 2 tcp 1040 ------- 1 0.0 2.0 3 16
r 1.51104 0 1 tcp 1040 ------- 1 0.0 2.0 4 17
+ 1.51104 1 2 tcp 1040 ------- 1 0.0 2.0 4 17
- 1.53856 1 3 tcp 1040 ------- 2 0.1 3.0 5 14
- 1.58016 1 3 tcp 1040 ------- 2 0.1 3.0 6 15
r 1.59008 0 1 tcp 1040 ------- 1 0.0 2.0 5 18
+ 1.59008 1 2 tcp 1040 ------- 1 0.0 2.0 5 18
- 1.59008 1 2 tcp 1040 ------- 1 0.0 2.0 4 17
r 1.59424 0 1 tcp 1040 ------- 1 0.0 2.0 6 19
+ 1.59424 1 2 tcp 1040 ------- 1 0.0 2.0 6 19
r 1.59696 1 3 tcp 1040 ------- 2 0.1 3.0 3 12
+ 1.59696 3 1 ack 40 ------- 2 3.0 0.1 3 20
- 1.59696 3 1 ack 40 ------- 2 3.0 0.1 3 20
r 1.63856 1 3 tcp 1040 ------- 2 0.1 3.0 4 13
+ 1.63856 3 1 ack 40 ------- 2 3.0 0.1 4 21
- 1.63856 3 1 ack 40 ------- 2 3.0 0.1 4 21
- 1.67328 1 2 tcp 1040 ------- 1 0.0 2.0 5 18
r 1.68016 1 3 tcp 1040 ------- 2 0.1 3.0 5 14
+ 1.68016 3 1 ack 40 ------- 2 3.0 0.1 5 22
- 1.68016 3 1 ack 40 ------- 2 3.0 0.1 5 22
r 1.69008 1 2 tcp 1040 ------- 1 0.0 2.0 3 16
+ 1.69008 2 1 ack 40 ------- 1 2.0 0.0 3 23
- 1.69008 2 1 ack 40 ------- 1 2.0 0.0 3 23
r 1.69856 3 1 ack 40 ------- 2 3.0 0.1 3 20
+ 1.69856 1 0 ack 40 ------- 2 3.0 0.1 3 20
- 1.69856 1 0 ack 40 ------- 2 3.0 0.1 3 20
r 1.72176 1 3 tcp 1040 ------- 2 0.1 3.0 6 15
+ 1.72176 3 1 ack 40 ------- 2 3.0 0.1 6 24
- 1.72176 3 1 ack 40 ------- 2 3.0 0.1 6 24
r 1.74016 3 1 ack 40 ------- 2 3.0 0.1 4 21
+ 1.74016 1 0 ack 40 ------- 2 3.0 0.1 4 21
- 1.74016 1 0 ack 40 ------- 2 3.0 0.1 4 21
- 1.75648 1 2 tcp 1040 ------- 1 0.0 2.0 6 19
r 1.77328 1 2 tcp 1040 ------- 1 0.0 2.0 4 17
+ 1.77328 2 1 ack 40 ------- 1 2.0 0.0 4 25
- 1.77328 2 1 ack 40 ------- 1 2.0 0.0 4 25
r 1.78176 3 1 ack 40 ------- 2 3.0 0.1 5 22
+ 1.78176 1 0 ack 40 ------- 2 3.0 0.1 5 22
- 1.78176 1 0 ack 40 ------- 2 3.0 0.1 5 22
r 1.79328 2 1 ack 40 ------- 1 2.0 0.0 3 23
+ 1.79328 1 0 ack 40 ------- 1 2.0 0.0 3 23
- 1.79328 1 0 ack 40 ------- 1 2.0 0.0 3 23
r 1.79872 1 0 ack 40 ------- 2 3.0 0.1 3 20
+ 1.79872 0 1 tcp 1040 ------- 2 0.1 3.0 7 26
- 1.79872 0 1 tcp 1040 ------- 2 0.1 3.0 7 26
+ 1.79872 0 1 tcp 1040 ------- 2 0.1 3.0 8 27
- 1.80288 0 1 tcp 1040 ------- 2 0.1 3.0 8 27
r 1.82336 3 1 ack 40 ------- 2 3.0 0.1 6 24
+ 1.82336 1 0 ack 40 ------- 2 3.0 0.1 6 24
- 1.82336 1 0 ack 40 ------- 2 3.0 0.1 6 24
r 1.84032 1 0 ack 40 ------- 2 3.0 0.1 4 21
+ 1.84032 0 1 tcp 1040 ------- 2 0.1 3.0 9 28
- 1.84032 0 1 tcp 1040 ------- 2 0.1 3.0 9 28
+ 1.84032 0 1 tcp 1040 ------- 2 0.1 3.0 10 29
- 1.84448 0 1 tcp 1040 ------- 2 0.1 3.0 10 29
r 1.85648 1 2 tcp 1040 ------- 1 0.0 2.0 5 18
+ 1.85648 2 1 ack 40 ------- 1 2.0 0.0 5 30
- 1.85648 2 1 ack 40 ------- 1 2.0 0.0 5 30
r 1.87648 2 1 ack 40 ------- 1 2.0 0.0 4 25
+ 1.87648 1 0 ack 40 ------- 1 2.0 0.0 4 25
- 1.87648 1 0 ack 40 ------- 1 2.0 0.0 4 25
r 1.88192 1 0 ack 40 ------- 2 3.0 0.1 5 22
+ 1.88192 0 1 tcp 1040 ------- 2 0.1 3.0 11 31
- 1.88192 0 1 tcp 1040 ------- 2 0.1 3.0 11 31
+ 1.88192 0 1 tcp 1040 ------- 2 0.1 3.0 12 32
- 1.88608 0 1 tcp 1040 ------- 2 0.1 3.0 12 32
r 1.89344 1 0 ack 40 ------- 1 2.0 0.0 3 23
+ 1.89344 0 1 tcp 1040 ------- 1 0.0 2.0 7 33
- 1.89344 0 1 tcp 1040 ------- 1 0.0 2.0 7 33
+ 1.89344 0 1 tcp 1040 ------- 1 0.0 2.0 8 34
- 1.8976 0 1 tcp 1040 ------- 1 0.0 2.0 8 34
r 1.90288 0 1 tcp 1040 ------- 2 0.1 3.0 7 26
+ 1.90288 1 3 tcp 1040 ------- 2 0.1 3.0 7 26
- 1.90288 1 3 tcp 1040 ------- 2 0.1 3.0 7 26
r 1.90704 0 1 tcp 1040 ------- 2 0.1 3.0 8 27
+ 1.90704 1 3 tcp 1040 ------- 2 0.1 3.0 8 27
r 1.92352 1 0 ack 40 ------- 2 3.0 0.1 6 24
+ 1.92352 0 1 tcp 1040 ------- 2 0.1 3.0 13 35
- 1.92352 0 1 tcp 1040 ------- 2 0.1 3.0 13 35
+ 1.92352 0 1 tcp 1040 ------- 2 0.1 3.0 14 36
- 1.92768 0 1 tcp 1040 ------- 2 0.1 3.0 14 36
r 1.93968 1 2 tcp 1040 ------- 1 0.0 2.0 6 19
+ 1.93968 2 1 ack 40 ------- 1 2.0 0.0 6 37
- 1.93968 2 1 ack 40 ------- 1 2.0 0.0 6 37
r 1.94448 0 1 tcp 1040 ------- 2 0.1 3.0 9 28
+ 1.94448 1 3 tcp 1040 ------- 2 0.1 3.0 9 28
- 1.94448 1 3 tcp 1040 ------- 2 0.1 3.0 8 27
r 1.94864 0 1 tcp 1040 ------- 2 0.1 3.0 10 29
+ 1.94864 1 3 tcp 1040 ------- 2 0.1 3.0 10 29
r 1.95968 2 1 ack 40 ------- 1 2.0 0.0 5 30
+ 1.95968 1 0 ack 40 ------- 1 2.0 0.0 5 30
- 1.95968 1 0 ack 40 ------- 1 2.0 0.0 5 30
r 1.97664 1 0 ack 40 ------- 1 2.0 0.0 4 25
+ 1.97664 0 1 tcp 1040 ------- 1 0.0 2.0 9 38
- 1.97664 0 1 tcp 1040 ------- 1 0.0 2.0 9 38
+ 1.97664 0 1 tcp 1040 ------- 1 0.0 2.0 10 39
- 1.9808 0 1 tcp 1040 ------- 1 0.0 2.0 10 39
r 1.98608 0 1 tcp 1040 ------- 2 0.1 3.0 11 31
+ 1.98608 1 3 tcp 1040 ------- 2 0.1 3.0 11 31
- 1.98608 1 3 tcp 1040 ------- 2 0.1 3.0 9 28
r 1.99024 0 1 tcp 1040 ------- 2 0.1 3.0 12 32
+ 1.99024 1 3 tcp 1040 ------- 2 0.1 3.0 12 32
r 1.9976 0 1 tcp 1040 ------- 1 0.0 2.0 7 33
+ 1.9976 1 2 tcp 1040 ------- 1 0.0 2.0 7 33
- 1.9976 1 2 tcp 1040 ------- 1 0.0 2.0 7 33
r 2.00176 0 1 tcp 1040 ------- 1 0.0 2.0 8 34
+ 2.00176 1 2 tcp 1040 ------- 1 0.0 2.0 8 34
r 2.02768 0 1 tcp 1040 ------- 2 0.1 3.0 13 35
+ 2.02768 1 3 tcp 1040 ------- 2 0.1 3.0 13 35
- 2.02768 1 3 tcp 1040 ------- 2 0.1 3.0 10 29
r 2.03184 0 1 tcp 1040 ------- 2 0.1 3.0 14 36
+ 2.03184 1 3 tcp 1040 ------- 2 0.1 3.0 14 36
r 2.04288 2 1 ack 40 ------- 1 2.0 0.0 6 37
+ 2.04288 1 0 ack 40 ------- 1 2.0 0.0 6 37
- 2.04288 1 0 ack 40 ------- 1 2.0 0.0 6 37
r 2.04448 1 3 tcp 1040 ------- 2 0.1 3.0 7 26
+ 2.04448 3 1 ack 40 ------- 2 3.0 0.1 7 40
- 2.04448 3 1 ack 40 ------- 2 3.0 0.1 7 40
r 2.05984 1 0 ack 40 ------- 1 2.0 0.0 5 30
+ 2.05984 0 1 tcp 1040 ------- 1 0.0 2.0 11 41
- 2.05984 0 1 tcp 1040 ------- 1 0.0 2.0 11 41
+ 2.05984 0 1 tcp 1040 ------- 1 0.0 2.0 12 42
- 2.064 0 1 tcp 1040 ------- 1 0.0 2.0 12 42
- 2.06928 1 3 tcp 1040 ------- 2 0.1 3.0 11 31
r 2.0808 0 1 tcp 1040 ------- 1 0.0 2.0 9 38
+ 2.0808 1 2 tcp 1040 ------- 1 0.0 2.0 9 38
- 2.0808 1 2 tcp 1040 ------- 1 0.0 2.0 8 34
r 2.08496 0 1 tcp 1040 ------- 1 0.0 2.0 10 39
+ 2.08496 1 2 tcp 1040 ------- 1 0.0 2.0 10 39
r 2.08608 1 3 tcp 1040 ------- 2 0.1 3.0 8 27
+ 2.08608 3 1 ack 40 ------- 2 3.0 0.1 8 43
- 2.08608 3 1 ack 40 ------- 2 3.0 0.1 8 43
- 2.11088 1 3 tcp 1040 ------- 2 0.1 3.0 12 32
r 2.12768 1 3 tcp 1040 ------- 2 0.1 3.0 9 28
+ 2.12768 3 1 ack 40 ------- 2 3.0 0.1 9 44
- 2.12768 3 1 ack 40 ------- 2 3.0 0.1 9 44
r 2.14304 1 0 ack 40 ------- 1 2.0 0.0 6 37
+ 2.14304 0 1 tcp 1040 ------- 1 0.0 2.0 13 45
- 2.14304 0 1 tcp 1040 ------- 1 0.0 2.0 13 45
+ 2.14304 0 1 tcp 1040 ------- 1 0.0 2.0 14 46
r 2.14608 3 1 ack 40 ------- 2 3.0 0.1 7 40
+ 2.14608 1 0 ack 40 ------- 2 3.0 0.1 7 40
- 2.14608 1 0 ack 40 ------- 2 3.0 0.1 7 40
- 2.1472 0 1 tcp 1040 ------- 1 0.0 2.0 14 46
- 2.15248 1 3 tcp 1040 ------- 2 0.1 3.0 13 35
r 2.164 0 1 tcp 1040 ------- 1 0.0 2.0 11 41
+ 2.164 1 2 tcp 1040 ------- 1 0.0 2.0 11 41
- 2.164 1 2 tcp 1040 ------- 1 0.0 2.0 9 38
r 2.16816 0 1 tcp 1040 ------- 1 0.0 2.0 12 42
+ 2.16816 1 2 tcp 1040 ------- 1 0.0 2.0 12 42
r 2.16928 1 3 tcp 1040 ------- 2 0.1 3.0 10 29
+ 2.16928 3 1 ack 40 ------- 2 3.0 0.1 10 47
- 2.16928 3 1 ack 40 ------- 2 3.0 0.1 10 47
r 2.1808 1 2 tcp 1040 ------- 1 0.0 2.0 7 33
+ 2.1808 2 1 ack 40 ------- 1 2.0 0.0 7 48
- 2.1808 2 1 ack 40 ------- 1 2.0 0.0 7 48
r 2.18768 3 1 ack 40 ------- 2 3.0 0.1 8 43
+ 2.18768 1 0 ack 40 ------- 2 3.0 0.1 8 43
- 2.18768 1 0 ack 40 ------- 2 3.0 0.1 8 43
- 2.19408 1 3 tcp 1040 ------- 2 0.1 3.0 14 36
r 2.21088 1 3 tcp 1040 ------- 2 0.1 3.0 11 31
+ 2.21088 3 1 ack 40 ------- 2 3.0 0.1 11 49
- 2.21088 3 1 ack 40 ------- 2 3.0 0.1 11 49
r 2.22928 3 1 ack 40 ------- 2 3.0 0.1 9 44
+ 2.22928 1 0 ack 40 ------- 2 3.0 0.1 9 44
- 2.22928 1 0 ack 40 ------- 2 3.0 0.1 9 44
r 2.24624 1 0 ack 40 ------- 2 3.0 0.1 7 40
+ 2.24624 0 1 tcp 1040 ------- 2 0.1 3.0 15 50
- 2.24624 0 1 tcp 1040 ------- 2 0.1 3.0 15 50
+ 2.24624 0 1 tcp 1040 ------- 2 0.1 3.0 16 51
r 2.2472 0 1 tcp 1040 ------- 1 0.0 2.0 13 45
+ 2.2472 1 2 tcp 1040 ------- 1 0.0 2.0 13 45
- 2.2472 1 2 tcp 1040 ------- 1 0.0 2.0 10 39
- 2.2504 0 1 tcp 1040 ------- 2 0.1 3.0 16 51
r 2.25136 0 1 tcp 1040 ------- 1 0.0 2.0 14 46
+ 2.25136 1 2 tcp 1040 ------- 1 0.0 2.0 14 46
r 2.25248 1 3 tcp 1040 ------- 2 0.1 3.0 12 32
+ 2.25248 3 1 ack 40 ------- 2 3.0 0.1 12 52
- 2.25248 3 1 ack 40 ------- 2 3.0 0.1 12 52
r 2.264 1 2 tcp 1040 ------- 1 0.0 2.0 8 34
+ 2.264 2 1 ack 40 ------- 1 2.0 0.0 8 53
- 2.264 2 1 ack 40 ------- 1 2.0 0.0 8 53
r 2.27088 3 1 ack 40 ------- 2 3.0 0.1 10 47
+ 2.27088 1 0 ack 40 ------- 2 3.0 0.1 10 47
- 2.27088 1 0 ack 40 ------- 2 3.0 0.1 10 47
r 2.284 2 1 ack 40 ------- 1 2.0 0.0 7 48
+ 2.284 1 0 ack 40 ------- 1 2.0 0.0 7 48
- 2.284 1 0 ack 40 ------- 1 2.0 0.0 7 48
r 2.28784 1 0 ack 40 ------- 2 3.0 0.1 8 43
+ 2.28784 0 1 tcp 1040 ------- 2 0.1 3.0 17 54
- 2.28784 0 1 tcp 1040 ------- 2 0.1 3.0 17 54
+ 2.28784 0 1 tcp 1040 ------- 2 0.1 3.0 18 55
- 2.292 0 1 tcp 1040 ------- 2 0.1 3.0 18 55
r 2.29408 1 3 tcp 1040 ------- 2 0.1 3.0 13 35
+ 2.29408 3 1 ack 40 ------- 2 3.0 0.1 13 56
- 2.29408 3 1 ack 40 ------- 2 3.0 0.1 13 56
r 2.31248 3 1 ack 40 ------- 2 3.0 0.1 11 49
+ 2.31248 1 0 ack 40 ------- 2 3.0 0.1 11 49
- 2.31248 1 0 ack 40 ------- 2 3.0 0.1 11 49
r 2.32944 1 0 ack 40 ------- 2 3.0 0.1 9 44
+ 2.32944 0 1 tcp 1040 ------- 2 0.1 3.0 19 57
- 2.32944 0 1 tcp 1040 ------- 2 0.1 3.0 19 57
+ 2.32944 0 1 tcp 1040 ------- 2 0.1 3.0 20 58
- 2.3304 1 2 tcp 1040 ------- 1 0.0 2.0 11 41
- 2.3336 0 1 tcp 1040 ------- 2 0.1 3.0 20 58
r 2.33568 1 3 tcp 1040 ------- 2 0.1 3.0 14 36
+ 2.33568 3 1 ack 40 ------- 2 3.0 0.1 14 59
- 2.33568 3 1 ack 40 ------- 2 3.0 0.1 14 59
r 2.3472 1 2 tcp 1040 ------- 1 0.0 2.0 9 38
+ 2.3472 2 1 ack 40 ------- 1 2.0 0.0 9 60
- 2.3472 2 1 ack 40 ------- 1 2.0 0.0 9 60
r 2.3504 0 1 tcp 1040 ------- 2 0.1 3.0 15 50
+ 2.3504 1 3 tcp 1040 ------- 2 0.1 3.0 15 50
- 2.3504 1 3 tcp 1040 ------- 2 0.1 3.0 15 50
r 2.35408 3 1 ack 40 ------- 2 3.0 0.1 12 52
+ 2.35408 1 0 ack 40 ------- 2 3.0 0.1 12 52
- 2.35408 1 0 ack 40 ------- 2 3.0 0.1 12 52
r 2.35456 0 1 tcp 1040 ------- 2 0.1 3.0 16 51
+ 2.35456 1 3 tcp 1040 ------- 2 0.1 3.0 16 51
r 2.3672 2 1 ack 40 ------- 1 2.0 0.0 8 53
+ 2.3672 1 0 ack 40 ------- 1 2.0 0.0 8 53
- 2.3672 1 0 ack 40 ------- 1 2.0 0.0 8 53
r 2.37104 1 0 ack 40 ------- 2 3.0 0.1 10 47
+ 2.37104 0 1 tcp 1040 ------- 2 0.1 3.0 21 61
- 2.37104 0 1 tcp 1040 ------- 2 0.1 3.0 21 61
+ 2.37104 0 1 tcp 1040 ------- 2 0.1 3.0 22 62
- 2.3752 0 1 tcp 1040 ------- 2 0.1 3.0 22 62
r 2.38416 1 0 ack 40 ------- 1 2.0 0.0 7 48
+ 2.38416 0 1 tcp 1040 ------- 1 0.0 2.0 15 63
- 2.38416 0 1 tcp 1040 ------- 1 0.0 2.0 15 63
+ 2.38416 0 1 tcp 1040 ------- 1 0.0 2.0 16 64
- 2.38832 0 1 tcp 1040 ------- 1 0.0 2.0 16 64
r 2.392 0 1 tcp 1040 ------- 2 0.1 3.0 17 54
+ 2.392 1 3 tcp 1040 ------- 2 0.1 3.0 17 54
- 2.392 1 3 tcp 1040 ------- 2 0.1 3.0 16 51
r 2.39568 3 1 ack 40 ------- 2 3.0 0.1 13 56
+ 2.39568 1 0 ack 40 ------- 2 3.0 0.1 13 56
- 2.39568 1 0 ack 40 ------- 2 3.0 0.1 13 56
r 2.39616 0 1 tcp 1040 ------- 2 0.1 3.0 18 55
+ 2.39616 1 3 tcp 1040 ------- 2 0.1 3.0 18 55
r 2.41264 1 0 ack 40 ------- 2 3.0 0.1 11 49
+ 2.41264 0 1 tcp 1040 ------- 2 0.1 3.0 23 65
- 2.41264 0 1 tcp 1040 ------- 2 0.1 3.0 23 65
+ 2.41264 0 1 tcp 1040 ------- 2 0.1 3.0 24 66
- 2.4136 1 2 tcp 1040 ------- 1 0.0 2.0 12 42
- 2.4168 0 1 tcp 1040 ------- 2 0.1 3.0 24 66
r 2.4304 1 2 tcp 1040 ------- 1 0.0 2.0 10 39
+ 2.4304 2 1 ack 40 ------- 1 2.0 0.0 10 67
- 2.4304 2 1 ack 40 ------- 1 2.0 0.0 10 67
- 2.4336 1 3 tcp 1040 ------- 2 0.1 3.0 17 54
r 2.4336 0 1 tcp 1040 ------- 2 0.1 3.0 19 57
+ 2.4336 1 3 tcp 1040 ------- 2 0.1 3.0 19 57
r 2.43728 3 1 ack 40 ------- 2 3.0 0.1 14 59
+ 2.43728 1 0 ack 40 ------- 2 3.0 0.1 14 59
- 2.43728 1 0 ack 40 ------- 2 3.0 0.1 14 59
r 2.43776 0 1 tcp 1040 ------- 2 0.1 3.0 20 58
+ 2.43776 1 3 tcp 1040 ------- 2 0.1 3.0 20 58
r 2.4504 2 1 ack 40 ------- 1 2.0 0.0 9 60
+ 2.4504 1 0 ack 40 ------- 1 2.0 0.0 9 60
- 2.4504 1 0 ack 40 ------- 1 2.0 0.0 9 60
r 2.45424 1 0 ack 40 ------- 2 3.0 0.1 12 52
+ 2.45424 0 1 tcp 1040 ------- 2 0.1 3.0 25 68
- 2.45424 0 1 tcp 1040 ------- 2 0.1 3.0 25 68
+ 2.45424 0 1 tcp 1040 ------- 2 0.1 3.0 26 69
- 2.4584 0 1 tcp 1040 ------- 2 0.1 3.0 26 69
r 2.46736 1 0 ack 40 ------- 1 2.0 0.0 8 53
+ 2.46736 0 1 tcp 1040 ------- 1 0.0 2.0 17 70
- 2.46736 0 1 tcp 1040 ------- 1 0.0 2.0 17 70
+ 2.46736 0 1 tcp 1040 ------- 1 0.0 2.0 18 71
- 2.47152 0 1 tcp 1040 ------- 1 0.0 2.0 18 71
- 2.4752 1 3 tcp 1040 ------- 2 0.1 3.0 18 55
r 2.4752 0 1 tcp 1040 ------- 2 0.1 3.0 21 61
+ 2.4752 1 3 tcp 1040 ------- 2 0.1 3.0 21 61
r 2.47936 0 1 tcp 1040 ------- 2 0.1 3.0 22 62
+ 2.47936 1 3 tcp 1040 ------- 2 0.1 3.0 22 62
r 2.48832 0 1 tcp 1040 ------- 1 0.0 2.0 15 63
+ 2.48832 1 2 tcp 1040 ------- 1 0.0 2.0 15 63
r 2.492 1 3 tcp 1040 ------- 2 0.1 3.0 15 50
+ 2.492 3 1 ack 40 ------- 2 3.0 0.1 15 72
- 2.492 3 1 ack 40 ------- 2 3.0 0.1 15 72
r 2.49248 0 1 tcp 1040 ------- 1 0.0 2.0 16 64
+ 2.49248 1 2 tcp 1040 ------- 1 0.0 2.0 16 64
r 2.49584 1 0 ack 40 ------- 2 3.0 0.1 13 56
+ 2.49584 0 1 tcp 1040 ------- 2 0.1 3.0 27 73
- 2.49584 0 1 tcp 1040 ------- 2 0.1 3.0 27 73
+ 2.49584 0 1 tcp 1040 ------- 2 0.1 3.0 28 74
- 2.4968 1 2 tcp 1040 ------- 1 0.0 2.0 13 45
- 2.5 0 1 tcp 1040 ------- 2 0.1 3.0 28 74
r 2.5136 1 2 tcp 1040 ------- 1 0.0 2.0 11 41
+ 2.5136 2 1 ack 40 ------- 1 2.0 0.0 11 75
- 2.5136 2 1 ack 40 ------- 1 2.0 0.0 11 75
- 2.5168 1 3 tcp 1040 ------- 2 0.1 3.0 19 57
r 2.5168 0 1 tcp 1040 ------- 2 0.1 3.0 23 65
+ 2.5168 1 3 tcp 1040 ------- 2 0.1 3.0 23 65
r 2.52096 0 1 tcp 1040 ------- 2 0.1 3.0 24 66
+ 2.52096 1 3 tcp 1040 ------- 2 0.1 3.0 24 66
r 2.5336 1 3 tcp 1040 ------- 2 0.1 3.0 16 51
+ 2.5336 3 1 ack 40 ------- 2 3.0 0.1 16 76
- 2.5336 3 1 ack 40 ------- 2 3.0 0.1 16 76
r 2.5336 2 1 ack 40 ------- 1 2.0 0.0 10 67
+ 2.5336 1 0 ack 40 ------- 1 2.0 0.0 10 67
- 2.5336 1 0 ack 40 ------- 1 2.0 0.0 10 67
r 2.53744 1 0 ack 40 ------- 2 3.0 0.1 14 59
+ 2.53744 0 1 tcp 1040 ------- 2 0.1 3.0 29 77
- 2.53744 0 1 tcp 1040 ------- 2 0.1 3.0 29 77
+ 2.53744 0 1 tcp 1040 ------- 2 0.1 3.0 30 78
- 2.5416 0 1 tcp 1040 ------- 2 0.1 3.0 30 78
r 2.55056 1 0 ack 40 ------- 1 2.0 0.0 9 60
+ 2.55056 0 1 tcp 1040 ------- 1 0.0 2.0 19 79
- 2.55056 0 1 tcp 1040 ------- 1 0.0 2.0 19 79
+ 2.55056 0 1 tcp 1040 ------- 1 0.0 2.0 20 80
- 2.55472 0 1 tcp 1040 ------- 1 0.0 2.0 20 80
- 2.5584 1 3 tcp 1040 ------- 2 0.1 3.0 20 58
r 2.5584 0 1 tcp 1040 ------- 2 0.1 3.0 25 68
+ 2.5584 1 3 tcp 1040 ------- 2 0.1 3.0 25 68
r 2.56256 0 1 tcp 1040 ------- 2 0.1 3.0 26 69
+ 2.56256 1 3 tcp 1040 ------- 2 0.1 3.0 26 69
r 2.57152 0 1 tcp 1040 ------- 1 0.0 2.0 17 70
+ 2.57152 1 2 tcp 1040 ------- 1 0.0 2.0 17 70
r 2.5752 1 3 tcp 1040 ------- 2 0.1 3.0 17 54
+ 2.5752 3 1 ack 40 ------- 2 3.0 0.1 17 81
- 2.5752 3 1 ack 40 ------- 2 3.0 0.1 17 81
r 2.57568 0 1 tcp 1040 ------- 1 0.0 2.0 18 71
+ 2.57568 1 2 tcp 1040 ------- 1 0.0 2.0 18 71
- 2.58 1 2 tcp 1040 ------- 1 0.0 2.0 14 46
r 2.5936 3 1 ack 40 ------- 2 3.0 0.1 15 72
+ 2.5936 1 0 ack 40 ------- 2 3.0 0.1 15 72
- 2.5936 1 0 ack 40 ------- 2 3.0 0.1 15 72
r 2.5968 1 2 tcp 1040 ------- 1 0.0 2.0 12 42
+ 2.5968 2 1 ack 40 ------- 1 2.0 0.0 12 82
- 2.5968 2 1 ack 40 ------- 1 2.0 0.0 12 82
- 2.6 1 3 tcp 1040 ------- 2 0.1 3.0 21 61
r 2.6 0 1 tcp 1040 ------- 2 0.1 3.0 27 73
+ 2.6 1 3 tcp 1040 ------- 2 0.1 3.0 27 73
r 2.60416 0 1 tcp 1040 ------- 2 0.1 3.0 28 74
+ 2.60416 1 3 tcp 1040 ------- 2 0.1 3.0 28 74
r 2.6168 1 3 tcp 1040 ------- 2 0.1 3.0 18 55
+ 2.6168 3 1 ack 40 ------- 2 3.0 0.1 18 83
- 2.6168 3 1 ack 40 ------- 2 3.0 0.1 18 83
r 2.6168 2 1 ack 40 ------- 1 2.0 0.0 11 75
+ 2.6168 1 0 ack 40 ------- 1 2.0 0.0 11 75
- 2.6168 1 0 ack 40 ------- 1 2.0 0.0 11 75
r 2.63376 1 0 ack 40 ------- 1 2.0 0.0 10 67
+ 2.63376 0 1 tcp 1040 ------- 1 0.0 2.0 21 84
- 2.63376 0 1 tcp 1040 ------- 1 0.0 2.0 21 84
+ 2.63376 0 1 tcp 1040 ------- 1 0.0 2.0 22 85
r 2.6352 3 1 ack 40 ------- 2 3.0 0.1 16 76
+ 2.6352 1 0 ack 40 ------- 2 3.0 0.1 16 76
- 2.6352 1 0 ack 40 ------- 2 3.0 0.1 16 76
- 2.63792 0 1 tcp 1040 ------- 1 0.0 2.0 22 85
- 2.6416 1 3 tcp 1040 ------- 2 0.1 3.0 22 62
r 2.6416 0 1 tcp 1040 ------- 2 0.1 3.0 29 77
+ 2.6416 1 3 tcp 1040 ------- 2 0.1 3.0 29 77
r 2.64576 0 1 tcp 1040 ------- 2 0.1 3.0 30 78
+ 2.64576 1 3 tcp 1040 ------- 2 0.1 3.0 30 78
r 2.65472 0 1 tcp 1040 ------- 1 0.0 2.0 19 79
+ 2.65472 1 2 tcp 1040 ------- 1 0.0 2.0 19 79
r 2.6584 1 3 tcp 1040 ------- 2 0.1 3.0 19 57
+ 2.6584 3 1 ack 40 ------- 2 3.0 0.1 19 86
- 2.6584 3 1 ack 40 ------- 2 3.0 0.1 19 86
r 2.65888 0 1 tcp 1040 ------- 1 0.0 2.0 20 80
+ 2.65888 1 2 tcp 1040 ------- 1 0.0 2.0 20 80
- 2.6632 1 2 tcp 1040 ------- 1 0.0 2.0 15 63
r 2.6768 3 1 ack 40 ------- 2 3.0 0.1 17 81
+ 2.6768 1 0 ack 40 ------- 2 3.0 0.1 17 81
- 2.6768 1 0 ack 40 ------- 2 3.0 0.1 17 81
r 2.68 1 2 tcp 1040 ------- 1 0.0 2.0 13 45
+ 2.68 2 1 ack 40 ------- 1 2.0 0.0 13 87
- 2.68 2 1 ack 40 ------- 1 2.0 0.0 13 87
- 2.6832 1 3 tcp 1040 ------- 2 0.1 3.0 23 65
r 2.69376 1 0 ack 40 ------- 2 3.0 0.1 15 72
+ 2.69376 0 1 tcp 1040 ------- 2 0.1 3.0 31 88
- 2.69376 0 1 tcp 1040 ------- 2 0.1 3.0 31 88
r 2.7 1 3 tcp 1040 ------- 2 0.1 3.0 20 58
+ 2.7 3 1 ack 40 ------- 2 3.0 0.1 20 89
- 2.7 3 1 ack 40 ------- 2 3.0 0.1 20 89
r 2.7 2 1 ack 40 ------- 1 2.0 0.0 12 82
+ 2.7 1 0 ack 40 ------- 1 2.0 0.0 12 82
- 2.7 1 0 ack 40 ------- 1 2.0 0.0 12 82
r 2.71696 1 0 ack 40 ------- 1 2.0 0.0 11 75
+ 2.71696 0 1 tcp 1040 ------- 1 0.0 2.0 23 90
- 2.71696 0 1 tcp 1040 ------- 1 0.0 2.0 23 90
+ 2.71696 0 1 tcp 1040 ------- 1 0.0 2.0 24 91
r 2.7184 3 1 ack 40 ------- 2 3.0 0.1 18 83
+ 2.7184 1 0 ack 40 ------- 2 3.0 0.1 18 83
- 2.7184 1 0 ack 40 ------- 2 3.0 0.1 18 83
- 2.72112 0 1 tcp 1040 ------- 1 0.0 2.0 24 91
- 2.7248 1 3 tcp 1040 ------- 2 0.1 3.0 24 66
r 2.73536 1 0 ack 40 ------- 2 3.0 0.1 16 76
+ 2.73536 0 1 tcp 1040 ------- 2 0.1 3.0 32 92
- 2.73536 0 1 tcp 1040 ------- 2 0.1 3.0 32 92
r 2.73792 0 1 tcp 1040 ------- 1 0.0 2.0 21 84
+ 2.73792 1 2 tcp 1040 ------- 1 0.0 2.0 21 84
r 2.7416 1 3 tcp 1040 ------- 2 0.1 3.0 21 61
+ 2.7416 3 1 ack 40 ------- 2 3.0 0.1 21 93
- 2.7416 3 1 ack 40 ------- 2 3.0 0.1 21 93
r 2.74208 0 1 tcp 1040 ------- 1 0.0 2.0 22 85
+ 2.74208 1 2 tcp 1040 ------- 1 0.0 2.0 22 85
- 2.7464 1 2 tcp 1040 ------- 1 0.0 2.0 16 64
r 2.76 3 1 ack 40 ------- 2 3.0 0.1 19 86
+ 2.76 1 0 ack 40 ------- 2 3.0 0.1 19 86
- 2.76 1 0 ack 40 ------- 2 3.0 0.1 19 86
r 2.7632 1 2 tcp 1040 ------- 1 0.0 2.0 14 46
+ 2.7632 2 1 ack 40 ------- 1 2.0 0.0 14 94
- 2.7632 2 1 ack 40 ------- 1 2.0 0.0 14 94
- 2.7664 1 3 tcp 1040 ------- 2 0.1 3.0 25 68
r 2.77696 1 0 ack 40 ------- 2 3.0 0.1 17 81
+ 2.77696 0 1 tcp 1040 ------- 2 0.1 3.0 33 95
- 2.77696 0 1 tcp 1040 ------- 2 0.1 3.0 33 95
r 2.7832 1 3 tcp 1040 ------- 2 0.1 3.0 22 62
+ 2.7832 3 1 ack 40 ------- 2 3.0 0.1 22 96
- 2.7832 3 1 ack 40 ------- 2 3.0 0.1 22 96
r 2.7832 2 1 ack 40 ------- 1 2.0 0.0 13 87
+ 2.7832 1 0 ack 40 ------- 1 2.0 0.0 13 87
- 2.7832 1 0 ack 40 ------- 1 2.0 0.0 13 87
r 2.79792 0 1 tcp 1040 ------- 2 0.1 3.0 31 88
+ 2.79792 1 3 tcp 1040 ------- 2 0.1 3.0 31 88
r 2.80016 1 0 ack 40 ------- 1 2.0 0.0 12 82
+ 2.80016 0 1 tcp 1040 ------- 1 0.0 2.0 25 97
- 2.80016 0 1 tcp 1040 ------- 1 0.0 2.0 25 97
+ 2.80016 0 1 tcp 1040 ------- 1 0.0 2.0 26 98
r 2.8016 3 1 ack 40 ------- 2 3.0 0.1 20 89
+ 2.8016 1 0 ack 40 ------- 2 3.0 0.1 20 89
- 2.8016 1 0 ack 40 ------- 2 3.0 0.1 20 89
- 2.80432 0 1 tcp 1040 ------- 1 0.0 2.0 26 98
- 2.808 1 3 tcp 1040 ------- 2 0.1 3.0 26 69
r 2.81856 1 0 ack 40 ------- 2 3.0 0.1 18 83
+ 2.81856 0 1 tcp 1040 ------- 2 0.1 3.0 34 99
- 2.81856 0 1 tcp 1040 ------- 2 0.1 3.0 34 99
r 2.82112 0 1 tcp 1040 ------- 1 0.0 2.0 23 90
+ 2.82112 1 2 tcp 1040 ------- 1 0.0 2.0 23 90
r 2.8248 1 3 tcp 1040 ------- 2 0.1 3.0 23 65
+ 2.8248 3 1 ack 40 ------- 2 3.0 0.1 23 100
- 2.8248 3 1 ack 40 ------- 2 3.0 0.1 23 100
r 2.82528 0 1 tcp 1040 ------- 1 0.0 2.0 24 91
+ 2.82528 1 2 tcp 1040 ------- 1 0.0 2.0 24 91
- 2.8296 1 2 tcp 1040 ------- 1 0.0 2.0 17 70
r 2.83952 0 1 tcp 1040 ------- 2 0.1 3.0 32 92
+ 2.83952 1 3 tcp 1040 ------- 2 0.1 3.0 32 92
r 2.8432 3 1 ack 40 ------- 2 3.0 0.1 21 93
+ 2.8432 1 0 ack 40 ------- 2 3.0 0.1 21 93
- 2.8432 1 0 ack 40 ------- 2 3.0 0.1 21 93
r 2.8464 1 2 tcp 1040 ------- 1 0.0 2.0 15 63
+ 2.8464 2 1 ack 40 ------- 1 2.0 0.0 15 101
- 2.8464 2 1 ack 40 ------- 1 2.0 0.0 15 101
- 2.8496 1 3 tcp 1040 ------- 2 0.1 3.0 27 73
r 2.86016 1 0 ack 40 ------- 2 3.0 0.1 19 86
+ 2.86016 0 1 tcp 1040 ------- 2 0.1 3.0 35 102
- 2.86016 0 1 tcp 1040 ------- 2 0.1 3.0 35 102
r 2.8664 1 3 tcp 1040 ------- 2 0.1 3.0 24 66
+ 2.8664 3 1 ack 40 ------- 2 3.0 0.1 24 103
- 2.8664 3 1 ack 40 ------- 2 3.0 0.1 24 103
r 2.8664 2 1 ack 40 ------- 1 2.0 0.0 14 94
+ 2.8664 1 0 ack 40 ------- 1 2.0 0.0 14 94
- 2.8664 1 0 ack 40 ------- 1 2.0 0.0 14 94
r 2.88112 0 1 tcp 1040 ------- 2 0.1 3.0 33 95
+ 2.88112 1 3 tcp 1040 ------- 2 0.1 3.0 33 95
r 2.88336 1 0 ack 40 ------- 1 2.0 0.0 13 87
+ 2.88336 0 1 tcp 1040 ------- 1 0.0 2.0 27 104
- 2.88336 0 1 tcp 1040 ------- 1 0.0 2.0 27 104
+ 2.88336 0 1 tcp 1040 ------- 1 0.0 2.0 28 105
r 2.8848 3 1 ack 40 ------- 2 3.0 0.1 22 96
+ 2.8848 1 0 ack 40 ------- 2 3.0 0.1 22 96
- 2.8848 1 0 ack 40 ------- 2 3.0 0.1 22 96
- 2.88752 0 1 tcp 1040 ------- 1 0.0 2.0 28 105
- 2.8912 1 3 tcp 1040 ------- 2 0.1 3.0 28 74
r 2.90176 1 0 ack 40 ------- 2 3.0 0.1 20 89
+ 2.90176 0 1 tcp 1040 ------- 2 0.1 3.0 36 106
- 2.90176 0 1 tcp 1040 ------- 2 0.1 3.0 36 106
r 2.90432 0 1 tcp 1040 ------- 1 0.0 2.0 25 97
+ 2.90432 1 2 tcp 1040 ------- 1 0.0 2.0 25 97
r 2.908 1 3 tcp 1040 ------- 2 0.1 3.0 25 68
+ 2.908 3 1 ack 40 ------- 2 3.0 0.1 25 107
- 2.908 3 1 ack 40 ------- 2 3.0 0.1 25 107
r 2.90848 0 1 tcp 1040 ------- 1 0.0 2.0 26 98
+ 2.90848 1 2 tcp 1040 ------- 1 0.0 2.0 26 98
- 2.9128 1 2 tcp 1040 ------- 1 0.0 2.0 18 71
r 2.92272 0 1 tcp 1040 ------- 2 0.1 3.0 34 99
+ 2.92272 1 3 tcp 1040 ------- 2 0.1 3.0 34 99
r 2.9264 3 1 ack 40 ------- 2 3.0 0.1 23 100
+ 2.9264 1 0 ack 40 ------- 2 3.0 0.1 23 100
- 2.9264 1 0 ack 40 ------- 2 3.0 0.1 23 100
r 2.9296 1 2 tcp 1040 ------- 1 0.0 2.0 16 64
+ 2.9296 2 1 ack 40 ------- 1 2.0 0.0 16 108
- 2.9296 2 1 ack 40 ------- 1 2.0 0.0 16 108
- 2.9328 1 3 tcp 1040 ------- 2 0.1 3.0 29 77
r 2.94336 1 0 ack 40 ------- 2 3.0 0.1 21 93
+ 2.94336 0 1 tcp 1040 ------- 2 0.1 3.0 37 109
- 2.94336 0 1 tcp 1040 ------- 2 0.1 3.0 37 109
r 2.9496 1 3 tcp 1040 ------- 2 0.1 3.0 26 69
+ 2.9496 3 1 ack 40 ------- 2 3.0 0.1 26 110
- 2.9496 3 1 ack 40 ------- 2 3.0 0.1 26 110
r 2.9496 2 1 ack 40 ------- 1 2.0 0.0 15 101
+ 2.9496 1 0 ack 40 ------- 1 2.0 0.0 15 101
- 2.9496 1 0 ack 40 ------- 1 2.0 0.0 15 101
r 2.96432 0 1 tcp 1040 ------- 2 0.1 3.0 35 102
+ 2.96432 1 3 tcp 1040 ------- 2 0.1 3.0 35 102
r 2.96656 1 0 ack 40 ------- 1 2.0 0.0 14 94
+ 2.96656 0 1 tcp 1040 ------- 1 0.0 2.0 29 111
- 2.96656 0 1 tcp 1040 ------- 1 0.0 2.0 29 111
+ 2.96656 0 1 tcp 1040 ------- 1 0.0 2.0 30 112
r 2.968 3 1 ack 40 ------- 2 3.0 0.1 24 103
+ 2.968 1 0 ack 40 ------- 2 3.0 0.1 24 103
- 2.968 1 0 ack 40 ------- 2 3.0 0.1 24 103
- 2.97072 0 1 tcp 1040 ------- 1 0.0 2.0 30 112
- 2.9744 1 3 tcp 1040 ------- 2 0.1 3.0 30 78
r 2.98496 1 0 ack 40 ------- 2 3.0 0.1 22 96
+ 2.98496 0 1 tcp 1040 ------- 2 0.1 3.0 38 113
- 2.98496 0 1 tcp 1040 ------- 2 0.1 3.0 38 113
r 2.98752 0 1 tcp 1040 ------- 1 0.0 2.0 27 104
+ 2.98752 1 2 tcp 1040 ------- 1 0.0 2.0 27 104
r 2.9912 1 3 tcp 1040 ------- 2 0.1 3.0 27 73
+ 2.9912 3 1 ack 40 ------- 2 3.0 0.1 27 114
- 2.9912 3 1 ack 40 ------- 2 3.0 0.1 27 114
r 2.99168 0 1 tcp 1040 ------- 1 0.0 2.0 28 105
+ 2.99168 1 2 tcp 1040 ------- 1 0.0 2.0 28 105
- 2.996 1 2 tcp 1040 ------- 1 0.0 2.0 19 79
r 3.00592 0 1 tcp 1040 ------- 2 0.1 3.0 36 106
+ 3.00592 1 3 tcp 1040 ------- 2 0.1 3.0 36 106
r 3.0096 3 1 ack 40 ------- 2 3.0 0.1 25 107
+ 3.0096 1 0 ack 40 ------- 2 3.0 0.1 25 107
- 3.0096 1 0 ack 40 ------- 2 3.0 0.1 25 107
r 3.0128 1 2 tcp 1040 ------- 1 0.0 2.0 17 70
+ 3.0128 2 1 ack 40 ------- 1 2.0 0.0 17 115
- 3.0128 2 1 ack 40 ------- 1 2.0 0.0 17 115
- 3.016 1 3 tcp 1040 ------- 2 0.1 3.0 31 88
r 3.02656 1 0 ack 40 ------- 2 3.0 0.1 23 100
+ 3.02656 0 1 tcp 1040 ------- 2 0.1 3.0 39 116
- 3.02656 0 1 tcp 1040 ------- 2 0.1 3.0 39 116
r 3.0328 1 3 tcp 1040 ------- 2 0.1 3.0 28 74
+ 3.0328 3 1 ack 40 ------- 2 3.0 0.1 28 117
- 3.0328 3 1 ack 40 ------- 2 3.0 0.1 28 117
r 3.0328 2 1 ack 40 ------- 1 2.0 0.0 16 108
+ 3.0328 1 0 ack 40 ------- 1 2.0 0.0 16 108
- 3.0328 1 0 ack 40 ------- 1 2.0 0.0 16 108
r 3.04752 0 1 tcp 1040 ------- 2 0.1 3.0 37 109
+ 3.04752 1 3 tcp 1040 ------- 2 0.1 3.0 37 109
r 3.04976 1 0 ack 40 ------- 1 2.0 0.0 15 101
+ 3.04976 0 1 tcp 1040 ------- 1 0.0 2.0 31 118
- 3.04976 0 1 tcp 1040 ------- 1 0.0 2.0 31 118
r 3.0512 3 1 ack 40 ------- 2 3.0 0.1 26 110
+ 3.0512 1 0 ack 40 ------- 2 3.0 0.1 26 110
- 3.0512 1 0 ack 40 ------- 2 3.0 0.1 26 110
- 3.0576 1 3 tcp 1040 ------- 2 0.1 3.0 32 92
r 3.06816 1 0 ack 40 ------- 2 3.0 0.1 24 103
+ 3.06816 0 1 tcp 1040 ------- 2 0.1 3.0 40 119
- 3.06816 0 1 tcp 1040 ------- 2 0.1 3.0 40 119
r 3.07072 0 1 tcp 1040 ------- 1 0.0 2.0 29 111
+ 3.07072 1 2 tcp 1040 ------- 1 0.0 2.0 29 111
r 3.0744 1 3 tcp 1040 ------- 2 0.1 3.0 29 77
+ 3.0744 3 1 ack 40 ------- 2 3.0 0.1 29 120
- 3.0744 3 1 ack 40 ------- 2 3.0 0.1 29 120
r 3.07488 0 1 tcp 1040 ------- 1 0.0 2.0 30 112
+ 3.07488 1 2 tcp 1040 ------- 1 0.0 2.0 30 112
- 3.0792 1 2 tcp 1040 ------- 1 0.0 2.0 20 80
r 3.08912 0 1 tcp 1040 ------- 2 0.1 3.0 38 113
+ 3.08912 1 3 tcp 1040 ------- 2 0.1 3.0 38 113
r 3.0928 3 1 ack 40 ------- 2 3.0 0.1 27 114
+ 3.0928 1 0 ack 40 ------- 2 3.0 0.1 27 114
- 3.0928 1 0 ack 40 ------- 2 3.0 0.1 27 114
r 3.096 1 2 tcp 1040 ------- 1 0.0 2.0 18 71