+ 0.2 0 8 tcp 40 ------- 1 0.0 7.0 0 0
- 0.2 0 8 tcp 40 ------- 1 0.0 7.0 0 0
r 0.21032 0 8 tcp 40 ------- 1 0.0 7.0 0 0
+ 0.21032 8 10 tcp 40 ------- 1 0.0 7.0 0 0
- 0.21032 8 10 tcp 40 ------- 1 0.0 7.0 0 0
r 0.22064 8 10 tcp 40 ------- 1 0.0 7.0 0 0
+ 0.22064 10 7 tcp 40 ------- 1 0.0 7.0 0 0
- 0.22064 10 7 tcp 40 ------- 1 0.0 7.0 0 0
r 0.23096 10 7 tcp 40 ------- 1 0.0 7.0 0 0
+ 0.23096 7 10 ack 40 ------- 1 7.0 0.0 0 1
- 0.23096 7 10 ack 40 ------- 1 7.0 0.0 0 1
r 0.24128 7 10 ack 40 ------- 1 7.0 0.0 0 1
+ 0.24128 10 8 ack 40 ------- 1 7.0 0.0 0 1
- 0.24128 10 8 ack 40 ------- 1 7.0 0.0 0 1
r 0.2516 10 8 ack 40 ------- 1 7.0 0.0 0 1
+ 0.2516 8 0 ack 40 ------- 1 7.0 0.0 0 1
- 0.2516 8 0 ack 40 ------- 1 7.0 0.0 0 1
r 0.26192 8 0 ack 40 ------- 1 7.0 0.0 0 1
+ 0.26192 0 8 tcp 1040 ------- 1 0.0 7.0 1 2
- 0.26192 0 8 tcp 1040 ------- 1 0.0 7.0 1 2
+ 0.26192 0 8 tcp 1040 ------- 1 0.0 7.0 2 3
- 0.27024 0 8 tcp 1040 ------- 1 0.0 7.0 2 3
r 0.28024 0 8 tcp 1040 ------- 1 0.0 7.0 1 2
+ 0.28024 8 10 tcp 1040 ------- 1 0.0 7.0 1 2
- 0.28024 8 10 tcp 1040 ------- 1 0.0 7.0 1 2
r 0.28856 0 8 tcp 1040 ------- 1 0.0 7.0 2 3
+ 0.28856 8 10 tcp 1040 ------- 1 0.0 7.0 2 3
- 0.28856 8 10 tcp 1040 ------- 1 0.0 7.0 2 3
r 0.29856 8 10 tcp 1040 ------- 1 0.0 7.0 1 2
+ 0.29856 10 7 tcp 1040 ------- 1 0.0 7.0 1 2
- 0.29856 10 7 tcp 1040 ------- 1 0.0 7.0 1 2
r 0.30688 8 10 tcp 1040 ------- 1 0.0 7.0 2 3
+ 0.30688 10 7 tcp 1040 ------- 1 0.0 7.0 2 3
- 0.30688 10 7 tcp 1040 ------- 1 0.0 7.0 2 3
r 0.31688 10 7 tcp 1040 ------- 1 0.0 7.0 1 2
+ 0.31688 7 10 ack 40 ------- 1 7.0 0.0 1 4
- 0.31688 7 10 ack 40 ------- 1 7.0 0.0 1 4
r 0.3252 10 7 tcp 1040 ------- 1 0.0 7.0 2 3
+ 0.3252 7 10 ack 40 ------- 1 7.0 0.0 2 5
- 0.3252 7 10 ack 40 ------- 1 7.0 0.0 2 5
r 0.3272 7 10 ack 40 ------- 1 7.0 0.0 1 4
+ 0.3272 10 8 ack 40 ------- 1 7.0 0.0 1 4
- 0.3272 10 8 ack 40 ------- 1 7.0 0.0 1 4
r 0.33552 7 10 ack 40 ------- 1 7.0 0.0 2 5
+ 0.33552 10 8 ack 40 ------- 1 7.0 0.0 2 5
- 0.33552 10 8 ack 40 ------- 1 7.0 0.0 2 5
r 0.33752 10 8 ack 40 ------- 1 7.0 0.0 1 4
+ 0.33752 8 0 ack 40 ------- 1 7.0 0.0 1 4
- 0.33752 8 0 ack 40 ------- 1 7.0 0.0 1 4
r 0.34584 10 8 ack 40 ------- 1 7.0 0.0 2 5
+ 0.34584 8 0 ack 40 ------- 1 7.0 0.0 2 5
- 0.34584 8 0 ack 40 ------- 1 7.0 0.0 2 5
r 0.34784 8 0 ack 40 ------- 1 7.0 0.0 1 4
+ 0.34784 0 8 tcp 1040 ------- 1 0.0 7.0 3 6
- 0.34784 0 8 tcp 1040 ------- 1 0.0 7.0 3 6
+ 0.34784 0 8 tcp 1040 ------- 1 0.0 7.0 4 7
r 0.35616 8 0 ack 40 ------- 1 7.0 0.0 2 5
+ 0.35616 0 8 tcp 1040 ------- 1 0.0 7.0 5 8
+ 0.35616 0 8 tcp 1040 ------- 1 0.0 7.0 6 9
- 0.35616 0 8 tcp 1040 ------- 1 0.0 7.0 4 7
- 0.36448 0 8 tcp 1040 ------- 1 0.0 7.0 5 8
r 0.36616 0 8 tcp 1040 ------- 1 0.0 7.0 3 6
+ 0.36616 8 10 tcp 1040 ------- 1 0.0 7.0 3 6
- 0.36616 8 10 tcp 1040 ------- 1 0.0 7.0 3 6
- 0.3728 0 8 tcp 1040 ------- 1 0.0 7.0 6 9
r 0.37448 0 8 tcp 1040 ------- 1 0.0 7.0 4 7
+ 0.37448 8 10 tcp 1040 ------- 1 0.0 7.0 4 7
- 0.37448 8 10 tcp 1040 ------- 1 0.0 7.0 4 7
r 0.3828 0 8 tcp 1040 ------- 1 0.0 7.0 5 8
+ 0.3828 8 10 tcp 1040 ------- 1 0.0 7.0 5 8
- 0.3828 8 10 tcp 1040 ------- 1 0.0 7.0 5 8
r 0.38448 8 10 tcp 1040 ------- 1 0.0 7.0 3 6
+ 0.38448 10 7 tcp 1040 ------- 1 0.0 7.0 3 6
- 0.38448 10 7 tcp 1040 ------- 1 0.0 7.0 3 6
r 0.39112 0 8 tcp 1040 ------- 1 0.0 7.0 6 9
+ 0.39112 8 10 tcp 1040 ------- 1 0.0 7.0 6 9
- 0.39112 8 10 tcp 1040 ------- 1 0.0 7.0 6 9
r 0.3928 8 10 tcp 1040 ------- 1 0.0 7.0 4 7
+ 0.3928 10 7 tcp 1040 ------- 1 0.0 7.0 4 7
- 0.3928 10 7 tcp 1040 ------- 1 0.0 7.0 4 7
r 0.40112 8 10 tcp 1040 ------- 1 0.0 7.0 5 8
+ 0.40112 10 7 tcp 1040 ------- 1 0.0 7.0 5 8
- 0.40112 10 7 tcp 1040 ------- 1 0.0 7.0 5 8
r 0.4028 10 7 tcp 1040 ------- 1 0.0 7.0 3 6
+ 0.4028 7 10 ack 40 ------- 1 7.0 0.0 3 10
- 0.4028 7 10 ack 40 ------- 1 7.0 0.0 3 10
r 0.40944 8 10 tcp 1040 ------- 1 0.0 7.0 6 9
+ 0.40944 10 7 tcp 1040 ------- 1 0.0 7.0 6 9
- 0.40944 10 7 tcp 1040 ------- 1 0.0 7.0 6 9
r 0.41112 10 7 tcp 1040 ------- 1 0.0 7.0 4 7
+ 0.41112 7 10 ack 40 ------- 1 7.0 0.0 4 11
- 0.41112 7 10 ack 40 ------- 1 7.0 0.0 4 11
r 0.41312 7 10 ack 40 ------- 1 7.0 0.0 3 10
+ 0.41312 10 8 ack 40 ------- 1 7.0 0.0 3 10
- 0.41312 10 8 ack 40 ------- 1 7.0 0.0 3 10
r 0.41944 10 7 tcp 1040 ------- 1 0.0 7.0 5 8
+ 0.41944 7 10 ack 40 ------- 1 7.0 0.0 5 12
- 0.41944 7 10 ack 40 ------- 1 7.0 0.0 5 12
r 0.42144 7 10 ack 40 ------- 1 7.0 0.0 4 11
+ 0.42144 10 8 ack 40 ------- 1 7.0 0.0 4 11
- 0.42144 10 8 ack 40 ------- 1 7.0 0.0 4 11
r 0.42344 10 8 ack 40 ------- 1 7.0 0.0 3 10
+ 0.42344 8 0 ack 40 ------- 1 7.0 0.0 3 10
- 0.42344 8 0 ack 40 ------- 1 7.0 0.0 3 10
r 0.42776 10 7 tcp 1040 ------- 1 0.0 7.0 6 9
+ 0.42776 7 10 ack 40 ------- 1 7.0 0.0 6 13
- 0.42776 7 10 ack 40 ------- 1 7.0 0.0 6 13
r 0.42976 7 10 ack 40 ------- 1 7.0 0.0 5 12
+ 0.42976 10 8 ack 40 ------- 1 7.0 0.0 5 12
- 0.42976 10 8 ack 40 ------- 1 7.0 0.0 5 12
r 0.43176 10 8 ack 40 ------- 1 7.0 0.0 4 11
+ 0.43176 8 0 ack 40 ------- 1 7.0 0.0 4 11
- 0.43176 8 0 ack 40 ------- 1 7.0 0.0 4 11
r 0.43376 8 0 ack 40 ------- 1 7.0 0.0 3 10
+ 0.43376 0 8 tcp 1040 ------- 1 0.0 7.0 7 14
- 0.43376 0 8 tcp 1040 ------- 1 0.0 7.0 7 14
+ 0.43376 0 8 tcp 1040 ------- 1 0.0 7.0 8 15
r 0.43808 7 10 ack 40 ------- 1 7.0 0.0 6 13
+ 0.43808 10 8 ack 40 ------- 1 7.0 0.0 6 13
- 0.43808 10 8 ack 40 ------- 1 7.0 0.0 6 13
r 0.44008 10 8 ack 40 ------- 1 7.0 0.0 5 12
+ 0.44008 8 0 ack 40 ------- 1 7.0 0.0 5 12
- 0.44008 8 0 ack 40 ------- 1 7.0 0.0 5 12
r 0.44208 8 0 ack 40 ------- 1 7.0 0.0 4 11
+ 0.44208 0 8 tcp 1040 ------- 1 0.0 7.0 9 16
+ 0.44208 0 8 tcp 1040 ------- 1 0.0 7.0 10 17
- 0.44208 0 8 tcp 1040 ------- 1 0.0 7.0 8 15
r 0.4484 10 8 ack 40 ------- 1 7.0 0.0 6 13
+ 0.4484 8 0 ack 40 ------- 1 7.0 0.0 6 13
- 0.4484 8 0 ack 40 ------- 1 7.0 0.0 6 13
r 0.4504 8 0 ack 40 ------- 1 7.0 0.0 5 12
+ 0.4504 0 8 tcp 1040 ------- 1 0.0 7.0 11 18
+ 0.4504 0 8 tcp 1040 ------- 1 0.0 7.0 12 19
- 0.4504 0 8 tcp 1040 ------- 1 0.0 7.0 9 16
r 0.45208 0 8 tcp 1040 ------- 1 0.0 7.0 7 14
+ 0.45208 8 10 tcp 1040 ------- 1 0.0 7.0 7 14
- 0.45208 8 10 tcp 1040 ------- 1 0.0 7.0 7 14
r 0.45872 8 0 ack 40 ------- 1 7.0 0.0 6 13
+ 0.45872 0 8 tcp 1040 ------- 1 0.0 7.0 13 20
+ 0.45872 0 8 tcp 1040 ------- 1 0.0 7.0 14 21
- 0.45872 0 8 tcp 1040 ------- 1 0.0 7.0 10 17
r 0.4604 0 8 tcp 1040 ------- 1 0.0 7.0 8 15
+ 0.4604 8 10 tcp 1040 ------- 1 0.0 7.0 8 15
- 0.4604 8 10 tcp 1040 ------- 1 0.0 7.0 8 15
- 0.46704 0 8 tcp 1040 ------- 1 0.0 7.0 11 18
r 0.46872 0 8 tcp 1040 ------- 1 0.0 7.0 9 16
+ 0.46872 8 10 tcp 1040 ------- 1 0.0 7.0 9 16
- 0.46872 8 10 tcp 1040 ------- 1 0.0 7.0 9 16
r 0.4704 8 10 tcp 1040 ------- 1 0.0 7.0 7 14
+ 0.4704 10 7 tcp 1040 ------- 1 0.0 7.0 7 14
- 0.4704 10 7 tcp 1040 ------- 1 0.0 7.0 7 14
- 0.47536 0 8 tcp 1040 ------- 1 0.0 7.0 12 19
r 0.47704 0 8 tcp 1040 ------- 1 0.0 7.0 10 17
+ 0.47704 8 10 tcp 1040 ------- 1 0.0 7.0 10 17
- 0.47704 8 10 tcp 1040 ------- 1 0.0 7.0 10 17
r 0.47872 8 10 tcp 1040 ------- 1 0.0 7.0 8 15
+ 0.47872 10 7 tcp 1040 ------- 1 0.0 7.0 8 15
- 0.47872 10 7 tcp 1040 ------- 1 0.0 7.0 8 15
- 0.48368 0 8 tcp 1040 ------- 1 0.0 7.0 13 20
r 0.48536 0 8 tcp 1040 ------- 1 0.0 7.0 11 18
+ 0.48536 8 10 tcp 1040 ------- 1 0.0 7.0 11 18
- 0.48536 8 10 tcp 1040 ------- 1 0.0 7.0 11 18
r 0.48704 8 10 tcp 1040 ------- 1 0.0 7.0 9 16
+ 0.48704 10 7 tcp 1040 ------- 1 0.0 7.0 9 16
- 0.48704 10 7 tcp 1040 ------- 1 0.0 7.0 9 16
r 0.48872 10 7 tcp 1040 ------- 1 0.0 7.0 7 14
+ 0.48872 7 10 ack 40 ------- 1 7.0 0.0 7 22
- 0.48872 7 10 ack 40 ------- 1 7.0 0.0 7 22
- 0.492 0 8 tcp 1040 ------- 1 0.0 7.0 14 21
r 0.49368 0 8 tcp 1040 ------- 1 0.0 7.0 12 19
+ 0.49368 8 10 tcp 1040 ------- 1 0.0 7.0 12 19
- 0.49368 8 10 tcp 1040 ------- 1 0.0 7.0 12 19
r 0.49536 8 10 tcp 1040 ------- 1 0.0 7.0 10 17
+ 0.49536 10 7 tcp 1040 ------- 1 0.0 7.0 10 17
- 0.49536 10 7 tcp 1040 ------- 1 0.0 7.0 10 17
r 0.49704 10 7 tcp 1040 ------- 1 0.0 7.0 8 15
+ 0.49704 7 10 ack 40 ------- 1 7.0 0.0 8 23
- 0.49704 7 10 ack 40 ------- 1 7.0 0.0 8 23
r 0.49904 7 10 ack 40 ------- 1 7.0 0.0 7 22
+ 0.49904 10 8 ack 40 ------- 1 7.0 0.0 7 22
- 0.49904 10 8 ack 40 ------- 1 7.0 0.0 7 22
r 0.502 0 8 tcp 1040 ------- 1 0.0 7.0 13 20
+ 0.502 8 10 tcp 1040 ------- 1 0.0 7.0 13 20
- 0.502 8 10 tcp 1040 ------- 1 0.0 7.0 13 20
r 0.50368 8 10 tcp 1040 ------- 1 0.0 7.0 11 18
+ 0.50368 10 7 tcp 1040 ------- 1 0.0 7.0 11 18
- 0.50368 10 7 tcp 1040 ------- 1 0.0 7.0 11 18
r 0.50536 10 7 tcp 1040 ------- 1 0.0 7.0 9 16
+ 0.50536 7 10 ack 40 ------- 1 7.0 0.0 9 24
- 0.50536 7 10 ack 40 ------- 1 7.0 0.0 9 24
r 0.50736 7 10 ack 40 ------- 1 7.0 0.0 8 23
+ 0.50736 10 8 ack 40 ------- 1 7.0 0.0 8 23
- 0.50736 10 8 ack 40 ------- 1 7.0 0.0 8 23
r 0.50936 10 8 ack 40 ------- 1 7.0 0.0 7 22
+ 0.50936 8 0 ack 40 ------- 1 7.0 0.0 7 22
- 0.50936 8 0 ack 40 ------- 1 7.0 0.0 7 22
r 0.51032 0 8 tcp 1040 ------- 1 0.0 7.0 14 21
+ 0.51032 8 10 tcp 1040 ------- 1 0.0 7.0 14 21
- 0.51032 8 10 tcp 1040 ------- 1 0.0 7.0 14 21
r 0.512 8 10 tcp 1040 ------- 1 0.0 7.0 12 19
+ 0.512 10 7 tcp 1040 ------- 1 0.0 7.0 12 19
- 0.512 10 7 tcp 1040 ------- 1 0.0 7.0 12 19
r 0.51368 10 7 tcp 1040 ------- 1 0.0 7.0 10 17
+ 0.51368 7 10 ack 40 ------- 1 7.0 0.0 10 25
- 0.51368 7 10 ack 40 ------- 1 7.0 0.0 10 25
r 0.51568 7 10 ack 40 ------- 1 7.0 0.0 9 24
+ 0.51568 10 8 ack 40 ------- 1 7.0 0.0 9 24
- 0.51568 10 8 ack 40 ------- 1 7.0 0.0 9 24
r 0.51768 10 8 ack 40 ------- 1 7.0 0.0 8 23
+ 0.51768 8 0 ack 40 ------- 1 7.0 0.0 8 23
- 0.51768 8 0 ack 40 ------- 1 7.0 0.0 8 23
r 0.51968 8 0 ack 40 ------- 1 7.0 0.0 7 22
+ 0.51968 0 8 tcp 1040 ------- 1 0.0 7.0 15 26
- 0.51968 0 8 tcp 1040 ------- 1 0.0 7.0 15 26
+ 0.51968 0 8 tcp 1040 ------- 1 0.0 7.0 16 27
r 0.52032 8 10 tcp 1040 ------- 1 0.0 7.0 13 20
+ 0.52032 10 7 tcp 1040 ------- 1 0.0 7.0 13 20
- 0.52032 10 7 tcp 1040 ------- 1 0.0 7.0 13 20
r 0.522 10 7 tcp 1040 ------- 1 0.0 7.0 11 18
+ 0.522 7 10 ack 40 ------- 1 7.0 0.0 11 28
- 0.522 7 10 ack 40 ------- 1 7.0 0.0 11 28
r 0.524 7 10 ack 40 ------- 1 7.0 0.0 10 25
+ 0.524 10 8 ack 40 ------- 1 7.0 0.0 10 25
- 0.524 10 8 ack 40 ------- 1 7.0 0.0 10 25
r 0.526 10 8 ack 40 ------- 1 7.0 0.0 9 24
+ 0.526 8 0 ack 40 ------- 1 7.0 0.0 9 24
- 0.526 8 0 ack 40 ------- 1 7.0 0.0 9 24
r 0.528 8 0 ack 40 ------- 1 7.0 0.0 8 23
+ 0.528 0 8 tcp 1040 ------- 1 0.0 7.0 17 29
+ 0.528 0 8 tcp 1040 ------- 1 0.0 7.0 18 30
- 0.528 0 8 tcp 1040 ------- 1 0.0 7.0 16 27
r 0.52864 8 10 tcp 1040 ------- 1 0.0 7.0 14 21
+ 0.52864 10 7 tcp 1040 ------- 1 0.0 7.0 14 21
- 0.52864 10 7 tcp 1040 ------- 1 0.0 7.0 14 21
r 0.53032 10 7 tcp 1040 ------- 1 0.0 7.0 12 19
+ 0.53032 7 10 ack 40 ------- 1 7.0 0.0 12 31
- 0.53032 7 10 ack 40 ------- 1 7.0 0.0 12 31
r 0.53232 7 10 ack 40 ------- 1 7.0 0.0 11 28
+ 0.53232 10 8 ack 40 ------- 1 7.0 0.0 11 28
- 0.53232 10 8 ack 40 ------- 1 7.0 0.0 11 28
r 0.53432 10 8 ack 40 ------- 1 7.0 0.0 10 25
+ 0.53432 8 0 ack 40 ------- 1 7.0 0.0 10 25
- 0.53432 8 0 ack 40 ------- 1 7.0 0.0 10 25
r 0.53632 8 0 ack 40 ------- 1 7.0 0.0 9 24
+ 0.53632 0 8 tcp 1040 ------- 1 0.0 7.0 19 32
+ 0.53632 0 8 tcp 1040 ------- 1 0.0 7.0 20 33
- 0.53632 0 8 tcp 1040 ------- 1 0.0 7.0 17 29
r 0.538 0 8 tcp 1040 ------- 1 0.0 7.0 15 26
+ 0.538 8 10 tcp 1040 ------- 1 0.0 7.0 15 26
- 0.538 8 10 tcp 1040 ------- 1 0.0 7.0 15 26
r 0.53864 10 7 tcp 1040 ------- 1 0.0 7.0 13 20
+ 0.53864 7 10 ack 40 ------- 1 7.0 0.0 13 34
- 0.53864 7 10 ack 40 ------- 1 7.0 0.0 13 34
r 0.54064 7 10 ack 40 ------- 1 7.0 0.0 12 31
+ 0.54064 10 8 ack 40 ------- 1 7.0 0.0 12 31
- 0.54064 10 8 ack 40 ------- 1 7.0 0.0 12 31
r 0.54264 10 8 ack 40 ------- 1 7.0 0.0 11 28
+ 0.54264 8 0 ack 40 ------- 1 7.0 0.0 11 28
- 0.54264 8 0 ack 40 ------- 1 7.0 0.0 11 28
r 0.54464 8 0 ack 40 ------- 1 7.0 0.0 10 25
+ 0.54464 0 8 tcp 1040 ------- 1 0.0 7.0 21 35
+ 0.54464 0 8 tcp 1040 ------- 1 0.0 7.0 22 36
- 0.54464 0 8 tcp 1040 ------- 1 0.0 7.0 18 30
r 0.54632 0 8 tcp 1040 ------- 1 0.0 7.0 16 27
+ 0.54632 8 10 tcp 1040 ------- 1 0.0 7.0 16 27
- 0.54632 8 10 tcp 1040 ------- 1 0.0 7.0 16 27
r 0.54696 10 7 tcp 1040 ------- 1 0.0 7.0 14 21
+ 0.54696 7 10 ack 40 ------- 1 7.0 0.0 14 37
- 0.54696 7 10 ack 40 ------- 1 7.0 0.0 14 37
r 0.54896 7 10 ack 40 ------- 1 7.0 0.0 13 34
+ 0.54896 10 8 ack 40 ------- 1 7.0 0.0 13 34
- 0.54896 10 8 ack 40 ------- 1 7.0 0.0 13 34
r 0.55096 10 8 ack 40 ------- 1 7.0 0.0 12 31
+ 0.55096 8 0 ack 40 ------- 1 7.0 0.0 12 31
- 0.55096 8 0 ack 40 ------- 1 7.0 0.0 12 31
r 0.55296 8 0 ack 40 ------- 1 7.0 0.0 11 28
+ 0.55296 0 8 tcp 1040 ------- 1 0.0 7.0 23 38
+ 0.55296 0 8 tcp 1040 ------- 1 0.0 7.0 24 39
- 0.55296 0 8 tcp 1040 ------- 1 0.0 7.0 19 32
r 0.55464 0 8 tcp 1040 ------- 1 0.0 7.0 17 29
+ 0.55464 8 10 tcp 1040 ------- 1 0.0 7.0 17 29
- 0.55464 8 10 tcp 1040 ------- 1 0.0 7.0 17 29
r 0.55632 8 10 tcp 1040 ------- 1 0.0 7.0 15 26
+ 0.55632 10 7 tcp 1040 ------- 1 0.0 7.0 15 26
- 0.55632 10 7 tcp 1040 ------- 1 0.0 7.0 15 26
r 0.55728 7 10 ack 40 ------- 1 7.0 0.0 14 37
+ 0.55728 10 8 ack 40 ------- 1 7.0 0.0 14 37
- 0.55728 10 8 ack 40 ------- 1 7.0 0.0 14 37
r 0.55928 10 8 ack 40 ------- 1 7.0 0.0 13 34
+ 0.55928 8 0 ack 40 ------- 1 7.0 0.0 13 34
- 0.55928 8 0 ack 40 ------- 1 7.0 0.0 13 34
r 0.56128 8 0 ack 40 ------- 1 7.0 0.0 12 31
+ 0.56128 0 8 tcp 1040 ------- 1 0.0 7.0 25 40
+ 0.56128 0 8 tcp 1040 ------- 1 0.0 7.0 26 41
- 0.56128 0 8 tcp 1040 ------- 1 0.0 7.0 20 33
r 0.56296 0 8 tcp 1040 ------- 1 0.0 7.0 18 30
+ 0.56296 8 10 tcp 1040 ------- 1 0.0 7.0 18 30
- 0.56296 8 10 tcp 1040 ------- 1 0.0 7.0 18 30
r 0.56464 8 10 tcp 1040 ------- 1 0.0 7.0 16 27
+ 0.56464 10 7 tcp 1040 ------- 1 0.0 7.0 16 27
- 0.56464 10 7 tcp 1040 ------- 1 0.0 7.0 16 27
r 0.5676 10 8 ack 40 ------- 1 7.0 0.0 14 37
+ 0.5676 8 0 ack 40 ------- 1 7.0 0.0 14 37
- 0.5676 8 0 ack 40 ------- 1 7.0 0.0 14 37
r 0.5696 8 0 ack 40 ------- 1 7.0 0.0 13 34
+ 0.5696 0 8 tcp 1040 ------- 1 0.0 7.0 27 42
+ 0.5696 0 8 tcp 1040 ------- 1 0.0 7.0 28 43
- 0.5696 0 8 tcp 1040 ------- 1 0.0 7.0 21 35
r 0.57128 0 8 tcp 1040 ------- 1 0.0 7.0 19 32
+ 0.57128 8 10 tcp 1040 ------- 1 0.0 7.0 19 32
- 0.57128 8 10 tcp 1040 ------- 1 0.0 7.0 19 32
r 0.57296 8 10 tcp 1040 ------- 1 0.0 7.0 17 29
+ 0.57296 10 7 tcp 1040 ------- 1 0.0 7.0 17 29
- 0.57296 10 7 tcp 1040 ------- 1 0.0 7.0 17 29
r 0.57464 10 7 tcp 1040 ------- 1 0.0 7.0 15 26
+ 0.57464 7 10 ack 40 ------- 1 7.0 0.0 15 44
- 0.57464 7 10 ack 40 ------- 1 7.0 0.0 15 44
r 0.57792 8 0 ack 40 ------- 1 7.0 0.0 14 37
+ 0.57792 0 8 tcp 1040 ------- 1 0.0 7.0 29 45
+ 0.57792 0 8 tcp 1040 ------- 1 0.0 7.0 30 46
- 0.57792 0 8 tcp 1040 ------- 1 0.0 7.0 22 36
r 0.5796 0 8 tcp 1040 ------- 1 0.0 7.0 20 33
+ 0.5796 8 10 tcp 1040 ------- 1 0.0 7.0 20 33
- 0.5796 8 10 tcp 1040 ------- 1 0.0 7.0 20 33
r 0.58128 8 10 tcp 1040 ------- 1 0.0 7.0 18 30
+ 0.58128 10 7 tcp 1040 ------- 1 0.0 7.0 18 30
- 0.58128 10 7 tcp 1040 ------- 1 0.0 7.0 18 30
r 0.58296 10 7 tcp 1040 ------- 1 0.0 7.0 16 27
+ 0.58296 7 10 ack 40 ------- 1 7.0 0.0 16 47
- 0.58296 7 10 ack 40 ------- 1 7.0 0.0 16 47
r 0.58496 7 10 ack 40 ------- 1 7.0 0.0 15 44
+ 0.58496 10 8 ack 40 ------- 1 7.0 0.0 15 44
- 0.58496 10 8 ack 40 ------- 1 7.0 0.0 15 44
- 0.58624 0 8 tcp 1040 ------- 1 0.0 7.0 23 38
r 0.58792 0 8 tcp 1040 ------- 1 0.0 7.0 21 35
+ 0.58792 8 10 tcp 1040 ------- 1 0.0 7.0 21 35
- 0.58792 8 10 tcp 1040 ------- 1 0.0 7.0 21 35
r 0.5896 8 10 tcp 1040 ------- 1 0.0 7.0 19 32
+ 0.5896 10 7 tcp 1040 ------- 1 0.0 7.0 19 32
- 0.5896 10 7 tcp 1040 ------- 1 0.0 7.0 19 32
r 0.59128 10 7 tcp 1040 ------- 1 0.0 7.0 17 29
+ 0.59128 7 10 ack 40 ------- 1 7.0 0.0 17 48
- 0.59128 7 10 ack 40 ------- 1 7.0 0.0 17 48
r 0.59328 7 10 ack 40 ------- 1 7.0 0.0 16 47
+ 0.59328 10 8 ack 40 ------- 1 7.0 0.0 16 47
- 0.59328 10 8 ack 40 ------- 1 7.0 0.0 16 47
- 0.59456 0 8 tcp 1040 ------- 1 0.0 7.0 24 39
r 0.59528 10 8 ack 40 ------- 1 7.0 0.0 15 44
+ 0.59528 8 0 ack 40 ------- 1 7.0 0.0 15 44
- 0.59528 8 0 ack 40 ------- 1 7.0 0.0 15 44
r 0.59624 0 8 tcp 1040 ------- 1 0.0 7.0 22 36
+ 0.59624 8 10 tcp 1040 ------- 1 0.0 7.0 22 36
- 0.59624 8 10 tcp 1040 ------- 1 0.0 7.0 22 36
r 0.59792 8 10 tcp 1040 ------- 1 0.0 7.0 20 33
+ 0.59792 10 7 tcp 1040 ------- 1 0.0 7.0 20 33
- 0.59792 10 7 tcp 1040 ------- 1 0.0 7.0 20 33
r 0.5996 10 7 tcp 1040 ------- 1 0.0 7.0 18 30
+ 0.5996 7 10 ack 40 ------- 1 7.0 0.0 18 49
- 0.5996 7 10 ack 40 ------- 1 7.0 0.0 18 49
r 0.6016 7 10 ack 40 ------- 1 7.0 0.0 17 48
+ 0.6016 10 8 ack 40 ------- 1 7.0 0.0 17 48
- 0.6016 10 8 ack 40 ------- 1 7.0 0.0 17 48
- 0.60288 0 8 tcp 1040 ------- 1 0.0 7.0 25 40
r 0.6036 10 8 ack 40 ------- 1 7.0 0.0 16 47
+ 0.6036 8 0 ack 40 ------- 1 7.0 0.0 16 47
- 0.6036 8 0 ack 40 ------- 1 7.0 0.0 16 47
r 0.60456 0 8 tcp 1040 ------- 1 0.0 7.0 23 38
+ 0.60456 8 10 tcp 1040 ------- 1 0.0 7.0 23 38
- 0.60456 8 10 tcp 1040 ------- 1 0.0 7.0 23 38
r 0.6056 8 0 ack 40 ------- 1 7.0 0.0 15 44
+ 0.6056 0 8 tcp 1040 ------- 1 0.0 7.0 31 50
r 0.60624 8 10 tcp 1040 ------- 1 0.0 7.0 21 35
+ 0.60624 10 7 tcp 1040 ------- 1 0.0 7.0 21 35
- 0.60624 10 7 tcp 1040 ------- 1 0.0 7.0 21 35
r 0.60792 10 7 tcp 1040 ------- 1 0.0 7.0 19 32
+ 0.60792 7 10 ack 40 ------- 1 7.0 0.0 19 51
- 0.60792 7 10 ack 40 ------- 1 7.0 0.0 19 51
r 0.60992 7 10 ack 40 ------- 1 7.0 0.0 18 49
+ 0.60992 10 8 ack 40 ------- 1 7.0 0.0 18 49
- 0.60992 10 8 ack 40 ------- 1 7.0 0.0 18 49
- 0.6112 0 8 tcp 1040 ------- 1 0.0 7.0 26 41
r 0.61192 10 8 ack 40 ------- 1 7.0 0.0 17 48
+ 0.61192 8 0 ack 40 ------- 1 7.0 0.0 17 48
- 0.61192 8 0 ack 40 ------- 1 7.0 0.0 17 48
r 0.61288 0 8 tcp 1040 ------- 1 0.0 7.0 24 39
+ 0.61288 8 10 tcp 1040 ------- 1 0.0 7.0 24 39
- 0.61288 8 10 tcp 1040 ------- 1 0.0 7.0 24 39
r 0.61392 8 0 ack 40 ------- 1 7.0 0.0 16 47
+ 0.61392 0 8 tcp 1040 ------- 1 0.0 7.0 32 52
r 0.61456 8 10 tcp 1040 ------- 1 0.0 7.0 22 36
+ 0.61456 10 7 tcp 1040 ------- 1 0.0 7.0 22 36
- 0.61456 10 7 tcp 1040 ------- 1 0.0 7.0 22 36
r 0.61624 10 7 tcp 1040 ------- 1 0.0 7.0 20 33
+ 0.61624 7 10 ack 40 ------- 1 7.0 0.0 20 53
- 0.61624 7 10 ack 40 ------- 1 7.0 0.0 20 53
r 0.61824 7 10 ack 40 ------- 1 7.0 0.0 19 51
+ 0.61824 10 8 ack 40 ------- 1 7.0 0.0 19 51
- 0.61824 10 8 ack 40 ------- 1 7.0 0.0 19 51
- 0.61952 0 8 tcp 1040 ------- 1 0.0 7.0 27 42
r 0.62024 10 8 ack 40 ------- 1 7.0 0.0 18 49
+ 0.62024 8 0 ack 40 ------- 1 7.0 0.0 18 49
- 0.62024 8 0 ack 40 ------- 1 7.0 0.0 18 49
r 0.6212 0 8 tcp 1040 ------- 1 0.0 7.0 25 40
+ 0.6212 8 10 tcp 1040 ------- 1 0.0 7.0 25 40
- 0.6212 8 10 tcp 1040 ------- 1 0.0 7.0 25 40
r 0.62224 8 0 ack 40 ------- 1 7.0 0.0 17 48
+ 0.62224 0 8 tcp 1040 ------- 1 0.0 7.0 33 54
r 0.62288 8 10 tcp 1040 ------- 1 0.0 7.0 23 38
+ 0.62288 10 7 tcp 1040 ------- 1 0.0 7.0 23 38
- 0.62288 10 7 tcp 1040 ------- 1 0.0 7.0 23 38
r 0.62456 10 7 tcp 1040 ------- 1 0.0 7.0 21 35
+ 0.62456 7 10 ack 40 ------- 1 7.0 0.0 21 55
- 0.62456 7 10 ack 40 ------- 1 7.0 0.0 21 55
r 0.62656 7 10 ack 40 ------- 1 7.0 0.0 20 53
+ 0.62656 10 8 ack 40 ------- 1 7.0 0.0 20 53
- 0.62656 10 8 ack 40 ------- 1 7.0 0.0 20 53
- 0.62784 0 8 tcp 1040 ------- 1 0.0 7.0 28 43
r 0.62856 10 8 ack 40 ------- 1 7.0 0.0 19 51
+ 0.62856 8 0 ack 40 ------- 1 7.0 0.0 19 51
- 0.62856 8 0 ack 40 ------- 1 7.0 0.0 19 51
r 0.62952 0 8 tcp 1040 ------- 1 0.0 7.0 26 41
+ 0.62952 8 10 tcp 1040 ------- 1 0.0 7.0 26 41
- 0.62952 8 10 tcp 1040 ------- 1 0.0 7.0 26 41
r 0.63056 8 0 ack 40 ------- 1 7.0 0.0 18 49
+ 0.63056 0 8 tcp 1040 ------- 1 0.0 7.0 34 56
r 0.6312 8 10 tcp 1040 ------- 1 0.0 7.0 24 39
+ 0.6312 10 7 tcp 1040 ------- 1 0.0 7.0 24 39
- 0.6312 10 7 tcp 1040 ------- 1 0.0 7.0 24 39
r 0.63288 10 7 tcp 1040 ------- 1 0.0 7.0 22 36
+ 0.63288 7 10 ack 40 ------- 1 7.0 0.0 22 57
- 0.63288 7 10 ack 40 ------- 1 7.0 0.0 22 57
r 0.63488 7 10 ack 40 ------- 1 7.0 0.0 21 55
+ 0.63488 10 8 ack 40 ------- 1 7.0 0.0 21 55
- 0.63488 10 8 ack 40 ------- 1 7.0 0.0 21 55
- 0.63616 0 8 tcp 1040 ------- 1 0.0 7.0 29 45
r 0.63688 10 8 ack 40 ------- 1 7.0 0.0 20 53
+ 0.63688 8 0 ack 40 ------- 1 7.0 0.0 20 53
- 0.63688 8 0 ack 40 ------- 1 7.0 0.0 20 53
r 0.63784 0 8 tcp 1040 ------- 1 0.0 7.0 27 42
+ 0.63784 8 10 tcp 1040 ------- 1 0.0 7.0 27 42
- 0.63784 8 10 tcp 1040 ------- 1 0.0 7.0 27 42
r 0.63888 8 0 ack 40 ------- 1 7.0 0.0 19 51
+ 0.63888 0 8 tcp 1040 ------- 1 0.0 7.0 35 58
r 0.63952 8 10 tcp 1040 ------- 1 0.0 7.0 25 40
+ 0.63952 10 7 tcp 1040 ------- 1 0.0 7.0 25 40
- 0.63952 10 7 tcp 1040 ------- 1 0.0 7.0 25 40
r 0.6412 10 7 tcp 1040 ------- 1 0.0 7.0 23 38
+ 0.6412 7 10 ack 40 ------- 1 7.0 0.0 23 59
- 0.6412 7 10 ack 40 ------- 1 7.0 0.0 23 59
r 0.6432 7 10 ack 40 ------- 1 7.0 0.0 22 57
+ 0.6432 10 8 ack 40 ------- 1 7.0 0.0 22 57
- 0.6432 10 8 ack 40 ------- 1 7.0 0.0 22 57
- 0.64448 0 8 tcp 1040 ------- 1 0.0 7.0 30 46
r 0.6452 10 8 ack 40 ------- 1 7.0 0.0 21 55
+ 0.6452 8 0 ack 40 ------- 1 7.0 0.0 21 55
- 0.6452 8 0 ack 40 ------- 1 7.0 0.0 21 55
r 0.64616 0 8 tcp 1040 ------- 1 0.0 7.0 28 43
+ 0.64616 8 10 tcp 1040 ------- 1 0.0 7.0 28 43
- 0.64616 8 10 tcp 1040 ------- 1 0.0 7.0 28 43
r 0.6472 8 0 ack 40 ------- 1 7.0 0.0 20 53
+ 0.6472 0 8 tcp 1040 ------- 1 0.0 7.0 36 60
r 0.64784 8 10 tcp 1040 ------- 1 0.0 7.0 26 41
+ 0.64784 10 7 tcp 1040 ------- 1 0.0 7.0 26 41
- 0.64784 10 7 tcp 1040 ------- 1 0.0 7.0 26 41
r 0.64952 10 7 tcp 1040 ------- 1 0.0 7.0 24 39
+ 0.64952 7 10 ack 40 ------- 1 7.0 0.0 24 61
- 0.64952 7 10 ack 40 ------- 1 7.0 0.0 24 61
r 0.65152 7 10 ack 40 ------- 1 7.0 0.0 23 59
+ 0.65152 10 8 ack 40 ------- 1 7.0 0.0 23 59
- 0.65152 10 8 ack 40 ------- 1 7.0 0.0 23 59
- 0.6528 0 8 tcp 1040 ------- 1 0.0 7.0 31 50
r 0.65352 10 8 ack 40 ------- 1 7.0 0.0 22 57
+ 0.65352 8 0 ack 40 ------- 1 7.0 0.0 22 57
- 0.65352 8 0 ack 40 ------- 1 7.0 0.0 22 57
r 0.65448 0 8 tcp 1040 ------- 1 0.0 7.0 29 45
+ 0.65448 8 10 tcp 1040 ------- 1 0.0 7.0 29 45
- 0.65448 8 10 tcp 1040 ------- 1 0.0 7.0 29 45
r 0.65552 8 0 ack 40 ------- 1 7.0 0.0 21 55
+ 0.65552 0 8 tcp 1040 ------- 1 0.0 7.0 37 62
r 0.65616 8 10 tcp 1040 ------- 1 0.0 7.0 27 42
+ 0.65616 10 7 tcp 1040 ------- 1 0.0 7.0 27 42
- 0.65616 10 7 tcp 1040 ------- 1 0.0 7.0 27 42
r 0.65784 10 7 tcp 1040 ------- 1 0.0 7.0 25 40
+ 0.65784 7 10 ack 40 ------- 1 7.0 0.0 25 63
- 0.65784 7 10 ack 40 ------- 1 7.0 0.0 25 63
r 0.65984 7 10 ack 40 ------- 1 7.0 0.0 24 61
+ 0.65984 10 8 ack 40 ------- 1 7.0 0.0 24 61
- 0.65984 10 8 ack 40 ------- 1 7.0 0.0 24 61
- 0.66112 0 8 tcp 1040 ------- 1 0.0 7.0 32 52
r 0.66184 10 8 ack 40 ------- 1 7.0 0.0 23 59
+ 0.66184 8 0 ack 40 ------- 1 7.0 0.0 23 59
- 0.66184 8 0 ack 40 ------- 1 7.0 0.0 23 59
r 0.6628 0 8 tcp 1040 ------- 1 0.0 7.0 30 46
+ 0.6628 8 10 tcp 1040 ------- 1 0.0 7.0 30 46
- 0.6628 8 10 tcp 1040 ------- 1 0.0 7.0 30 46
r 0.66384 8 0 ack 40 ------- 1 7.0 0.0 22 57
+ 0.66384 0 8 tcp 1040 ------- 1 0.0 7.0 38 64
r 0.66448 8 10 tcp 1040 ------- 1 0.0 7.0 28 43
+ 0.66448 10 7 tcp 1040 ------- 1 0.0 7.0 28 43
- 0.66448 10 7 tcp 1040 ------- 1 0.0 7.0 28 43
r 0.66616 10 7 tcp 1040 ------- 1 0.0 7.0 26 41
+ 0.66616 7 10 ack 40 ------- 1 7.0 0.0 26 65
- 0.66616 7 10 ack 40 ------- 1 7.0 0.0 26 65
r 0.66816 7 10 ack 40 ------- 1 7.0 0.0 25 63
+ 0.66816 10 8 ack 40 ------- 1 7.0 0.0 25 63
- 0.66816 10 8 ack 40 ------- 1 7.0 0.0 25 63
- 0.66944 0 8 tcp 1040 ------- 1 0.0 7.0 33 54
r 0.67016 10 8 ack 40 ------- 1 7.0 0.0 24 61
+ 0.67016 8 0 ack 40 ------- 1 7.0 0.0 24 61
- 0.67016 8 0 ack 40 ------- 1 7.0 0.0 24 61
r 0.67112 0 8 tcp 1040 ------- 1 0.0 7.0 31 50
+ 0.67112 8 10 tcp 1040 ------- 1 0.0 7.0 31 50
- 0.67112 8 10 tcp 1040 ------- 1 0.0 7.0 31 50
r 0.67216 8 0 ack 40 ------- 1 7.0 0.0 23 59
+ 0.67216 0 8 tcp 1040 ------- 1 0.0 7.0 39 66
r 0.6728 8 10 tcp 1040 ------- 1 0.0 7.0 29 45
+ 0.6728 10 7 tcp 1040 ------- 1 0.0 7.0 29 45
- 0.6728 10 7 tcp 1040 ------- 1 0.0 7.0 29 45
r 0.67448 10 7 tcp 1040 ------- 1 0.0 7.0 27 42
+ 0.67448 7 10 ack 40 ------- 1 7.0 0.0 27 67
- 0.67448 7 10 ack 40 ------- 1 7.0 0.0 27 67
r 0.67648 7 10 ack 40 ------- 1 7.0 0.0 26 65
+ 0.67648 10 8 ack 40 ------- 1 7.0 0.0 26 65
- 0.67648 10 8 ack 40 ------- 1 7.0 0.0 26 65
- 0.67776 0 8 tcp 1040 ------- 1 0.0 7.0 34 56
r 0.67848 10 8 ack 40 ------- 1 7.0 0.0 25 63
+ 0.67848 8 0 ack 40 ------- 1 7.0 0.0 25 63
- 0.67848 8 0 ack 40 ------- 1 7.0 0.0 25 63
r 0.67944 0 8 tcp 1040 ------- 1 0.0 7.0 32 52
+ 0.67944 8 10 tcp 1040 ------- 1 0.0 7.0 32 52
- 0.67944 8 10 tcp 1040 ------- 1 0.0 7.0 32 52
r 0.68048 8 0 ack 40 ------- 1 7.0 0.0 24 61
+ 0.68048 0 8 tcp 1040 ------- 1 0.0 7.0 40 68
r 0.68112 8 10 tcp 1040 ------- 1 0.0 7.0 30 46
+ 0.68112 10 7 tcp 1040 ------- 1 0.0 7.0 30 46
- 0.68112 10 7 tcp 1040 ------- 1 0.0 7.0 30 46
r 0.6828 10 7 tcp 1040 ------- 1 0.0 7.0 28 43
+ 0.6828 7 10 ack 40 ------- 1 7.0 0.0 28 69
- 0.6828 7 10 ack 40 ------- 1 7.0 0.0 28 69
r 0.6848 7 10 ack 40 ------- 1 7.0 0.0 27 67
+ 0.6848 10 8 ack 40 ------- 1 7.0 0.0 27 67
- 0.6848 10 8 ack 40 ------- 1 7.0 0.0 27 67
- 0.68608 0 8 tcp 1040 ------- 1 0.0 7.0 35 58
r 0.6868 10 8 ack 40 ------- 1 7.0 0.0 26 65
+ 0.6868 8 0 ack 40 ------- 1 7.0 0.0 26 65
- 0.6868 8 0 ack 40 ------- 1 7.0 0.0 26 65
r 0.68776 0 8 tcp 1040 ------- 1 0.0 7.0 33 54
+ 0.68776 8 10 tcp 1040 ------- 1 0.0 7.0 33 54
- 0.68776 8 10 tcp 1040 ------- 1 0.0 7.0 33 54
r 0.6888 8 0 ack 40 ------- 1 7.0 0.0 25 63
+ 0.6888 0 8 tcp 1040 ------- 1 0.0 7.0 41 70
r 0.68944 8 10 tcp 1040 ------- 1 0.0 7.0 31 50
+ 0.68944 10 7 tcp 1040 ------- 1 0.0 7.0 31 50
- 0.68944 10 7 tcp 1040 ------- 1 0.0 7.0 31 50
r 0.69112 10 7 tcp 1040 ------- 1 0.0 7.0 29 45
+ 0.69112 7 10 ack 40 ------- 1 7.0 0.0 29 71
- 0.69112 7 10 ack 40 ------- 1 7.0 0.0 29 71
r 0.69312 7 10 ack 40 ------- 1 7.0 0.0 28 69
+ 0.69312 10 8 ack 40 ------- 1 7.0 0.0 28 69
- 0.69312 10 8 ack 40 ------- 1 7.0 0.0 28 69
- 0.6944 0 8 tcp 1040 ------- 1 0.0 7.0 36 60
r 0.69512 10 8 ack 40 ------- 1 7.0 0.0 27 67
+ 0.69512 8 0 ack 40 ------- 1 7.0 0.0 27 67
- 0.69512 8 0 ack 40 ------- 1 7.0 0.0 27 67
r 0.69608 0 8 tcp 1040 ------- 1 0.0 7.0 34 56
+ 0.69608 8 10 tcp 1040 ------- 1 0.0 7.0 34 56
- 0.69608 8 10 tcp 1040 ------- 1 0.0 7.0 34 56
r 0.69712 8 0 ack 40 ------- 1 7.0 0.0 26 65
+ 0.69712 0 8 tcp 1040 ------- 1 0.0 7.0 42 72
r 0.69776 8 10 tcp 1040 ------- 1 0.0 7.0 32 52
+ 0.69776 10 7 tcp 1040 ------- 1 0.0 7.0 32 52
- 0.69776 10 7 tcp 1040 ------- 1 0.0 7.0 32 52
r 0.69944 10 7 tcp 1040 ------- 1 0.0 7.0 30 46
+ 0.69944 7 10 ack 40 ------- 1 7.0 0.0 30 73
- 0.69944 7 10 ack 40 ------- 1 7.0 0.0 30 73
+ 0.7 1 8 tcp 40 ------- 2 1.0 6.0 0 74
- 0.7 1 8 tcp 40 ------- 2 1.0 6.0 0 74
r 0.70144 7 10 ack 40 ------- 1 7.0 0.0 29 71
+ 0.70144 10 8 ack 40 ------- 1 7.0 0.0 29 71
- 0.70144 10 8 ack 40 ------- 1 7.0 0.0 29 71
- 0.70272 0 8 tcp 1040 ------- 1 0.0 7.0 37 62
r 0.70344 10 8 ack 40 ------- 1 7.0 0.0 28 69
+ 0.70344 8 0 ack 40 ------- 1 7.0 0.0 28 69
- 0.70344 8 0 ack 40 ------- 1 7.0 0.0 28 69
r 0.7044 0 8 tcp 1040 ------- 1 0.0 7.0 35 58
+ 0.7044 8 10 tcp 1040 ------- 1 0.0 7.0 35 58
- 0.7044 8 10 tcp 1040 ------- 1 0.0 7.0 35 58
r 0.70544 8 0 ack 40 ------- 1 7.0 0.0 27 67
+ 0.70544 0 8 tcp 1040 ------- 1 0.0 7.0 43 75
r 0.70608 8 10 tcp 1040 ------- 1 0.0 7.0 33 54
+ 0.70608 10 7 tcp 1040 ------- 1 0.0 7.0 33 54
- 0.70608 10 7 tcp 1040 ------- 1 0.0 7.0 33 54
r 0.70776 10 7 tcp 1040 ------- 1 0.0 7.0 31 50
+ 0.70776 7 10 ack 40 ------- 1 7.0 0.0 31 76
- 0.70776 7 10 ack 40 ------- 1 7.0 0.0 31 76
r 0.70976 7 10 ack 40 ------- 1 7.0 0.0 30 73
+ 0.70976 10 8 ack 40 ------- 1 7.0 0.0 30 73
- 0.70976 10 8 ack 40 ------- 1 7.0 0.0 30 73
r 0.71064 1 8 tcp 40 ------- 2 1.0 6.0 0 74
+ 0.71064 8 6 tcp 40 ------- 2 1.0 6.0 0 74
- 0.71064 8 6 tcp 40 ------- 2 1.0 6.0 0 74
- 0.71104 0 8 tcp 1040 ------- 1 0.0 7.0 38 64
r 0.71176 10 8 ack 40 ------- 1 7.0 0.0 29 71
+ 0.71176 8 0 ack 40 ------- 1 7.0 0.0 29 71
- 0.71176 8 0 ack 40 ------- 1 7.0 0.0 29 71
r 0.71272 0 8 tcp 1040 ------- 1 0.0 7.0 36 60
+ 0.71272 8 10 tcp 1040 ------- 1 0.0 7.0 36 60
- 0.71272 8 10 tcp 1040 ------- 1 0.0 7.0 36 60
r 0.71376 8 0 ack 40 ------- 1 7.0 0.0 28 69
+ 0.71376 0 8 tcp 1040 ------- 1 0.0 7.0 44 77
r 0.7144 8 10 tcp 1040 ------- 1 0.0 7.0 34 56
+ 0.7144 10 7 tcp 1040 ------- 1 0.0 7.0 34 56
- 0.7144 10 7 tcp 1040 ------- 1 0.0 7.0 34 56
r 0.71608 10 7 tcp 1040 ------- 1 0.0 7.0 32 52
+ 0.71608 7 10 ack 40 ------- 1 7.0 0.0 32 78
- 0.71608 7 10 ack 40 ------- 1 7.0 0.0 32 78
r 0.71808 7 10 ack 40 ------- 1 7.0 0.0 31 76
+ 0.71808 10 8 ack 40 ------- 1 7.0 0.0 31 76
- 0.71808 10 8 ack 40 ------- 1 7.0 0.0 31 76
- 0.71936 0 8 tcp 1040 ------- 1 0.0 7.0 39 66
r 0.72008 10 8 ack 40 ------- 1 7.0 0.0 30 73
+ 0.72008 8 0 ack 40 ------- 1 7.0 0.0 30 73
- 0.72008 8 0 ack 40 ------- 1 7.0 0.0 30 73
r 0.72096 8 6 tcp 40 ------- 2 1.0 6.0 0 74
+ 0.72096 6 8 ack 40 ------- 2 6.0 1.0 0 79
- 0.72096 6 8 ack 40 ------- 2 6.0 1.0 0 79
r 0.72104 0 8 tcp 1040 ------- 1 0.0 7.0 37 62
+ 0.72104 8 10 tcp 1040 ------- 1 0.0 7.0 37 62
- 0.72104 8 10 tcp 1040 ------- 1 0.0 7.0 37 62
r 0.72208 8 0 ack 40 ------- 1 7.0 0.0 29 71
+ 0.72208 0 8 tcp 1040 ------- 1 0.0 7.0 45 80
r 0.72272 8 10 tcp 1040 ------- 1 0.0 7.0 35 58
+ 0.72272 10 7 tcp 1040 ------- 1 0.0 7.0 35 58
- 0.72272 10 7 tcp 1040 ------- 1 0.0 7.0 35 58
r 0.7244 10 7 tcp 1040 ------- 1 0.0 7.0 33 54
+ 0.7244 7 10 ack 40 ------- 1 7.0 0.0 33 81
- 0.7244 7 10 ack 40 ------- 1 7.0 0.0 33 81
r 0.7264 7 10 ack 40 ------- 1 7.0 0.0 32 78
+ 0.7264 10 8 ack 40 ------- 1 7.0 0.0 32 78
- 0.7264 10 8 ack 40 ------- 1 7.0 0.0 32 78
- 0.72768 0 8 tcp 1040 ------- 1 0.0 7.0 40 68
r 0.7284 10 8 ack 40 ------- 1 7.0 0.0 31 76
+ 0.7284 8 0 ack 40 ------- 1 7.0 0.0 31 76
- 0.7284 8 0 ack 40 ------- 1 7.0 0.0 31 76
r 0.72936 0 8 tcp 1040 ------- 1 0.0 7.0 38 64
+ 0.72936 8 10 tcp 1040 ------- 1 0.0 7.0 38 64
- 0.72936 8 10 tcp 1040 ------- 1 0.0 7.0 38 64
r 0.7304 8 0 ack 40 ------- 1 7.0 0.0 30 73
+ 0.7304 0 8 tcp 1040 ------- 1 0.0 7.0 46 82
r 0.73104 8 10 tcp 1040 ------- 1 0.0 7.0 36 60
+ 0.73104 10 7 tcp 1040 ------- 1 0.0 7.0 36 60
- 0.73104 10 7 tcp 1040 ------- 1 0.0 7.0 36 60