V -t * -v 1.0a5 -a 0
A -t * -n 1 -p 0 -o 0x7fffffff -c 30 -a 1
A -t * -h 1 -m 1073741823 -s 0
c -t * -i 4 -n Purple
c -t * -i 1 -n Red
c -t * -i 2 -n Blue
c -t * -i 3 -n Green
n -t * -a 4 -s 4 -S UP -v circle -c black -i black
n -t * -a 0 -s 0 -S UP -v circle -c black -i black
n -t * -a 1 -s 1 -S UP -v circle -c black -i black
n -t * -a 2 -s 2 -S UP -v circle -c black -i black
n -t * -a 3 -s 3 -S UP -v circle -c black -i black
l -t * -s 0 -d 2 -S UP -r 1000000 -D 0.014999999999999999 -c black -o right-down
l -t * -s 4 -d 0 -S UP -r 1000000 -D 0.014999999999999999 -c black -o right-up
l -t * -s 1 -d 4 -S UP -r 1000000 -D 0.014999999999999999 -c black -o left-up
l -t * -s 2 -d 1 -S UP -r 1000000 -D 0.014999999999999999 -c black -o left-down
l -t * -s 3 -d 2 -S UP -r 1000000 -D 0.014999999999999999 -c black -o left
q -t * -s 2 -d 3 -a 0.5
q -t * -s 3 -d 2 -a 0.5
+ -t 0.5 -s 4 -d 0 -p tcp -e 40 -c 4 -i 0 -a 4 -x {4.0 0.1 0 ------- null}
- -t 0.5 -s 4 -d 0 -p tcp -e 40 -c 4 -i 0 -a 4 -x {4.0 0.1 0 ------- null}
h -t 0.5 -s 4 -d 0 -p tcp -e 40 -c 4 -i 0 -a 4 -x {4.0 0.1 -1 ------- null}
r -t 0.51532 -s 4 -d 0 -p tcp -e 40 -c 4 -i 0 -a 4 -x {4.0 0.1 0 ------- null}
+ -t 0.51532 -s 0 -d 4 -p ack -e 40 -c 4 -i 1 -a 4 -x {0.1 4.0 0 ------- null}
- -t 0.51532 -s 0 -d 4 -p ack -e 40 -c 4 -i 1 -a 4 -x {0.1 4.0 0 ------- null}
h -t 0.51532 -s 0 -d 4 -p ack -e 40 -c 4 -i 1 -a 4 -x {0.1 4.0 -1 ------- null}
r -t 0.53064 -s 0 -d 4 -p ack -e 40 -c 4 -i 1 -a 4 -x {0.1 4.0 0 ------- null}
+ -t 0.53064 -s 4 -d 0 -p tcp -e 1040 -c 4 -i 2 -a 4 -x {4.0 0.1 1 ------- null}
- -t 0.53064 -s 4 -d 0 -p tcp -e 1040 -c 4 -i 2 -a 4 -x {4.0 0.1 1 ------- null}
h -t 0.53064 -s 4 -d 0 -p tcp -e 1040 -c 4 -i 2 -a 4 -x {4.0 0.1 -1 ------- null}
+ -t 0.53064 -s 4 -d 0 -p tcp -e 1040 -c 4 -i 3 -a 4 -x {4.0 0.1 2 ------- null}
- -t 0.53896 -s 4 -d 0 -p tcp -e 1040 -c 4 -i 3 -a 4 -x {4.0 0.1 2 ------- null}
h -t 0.53896 -s 4 -d 0 -p tcp -e 1040 -c 4 -i 3 -a 4 -x {4.0 0.1 -1 ------- null}
r -t 0.55396 -s 4 -d 0 -p tcp -e 1040 -c 4 -i 2 -a 4 -x {4.0 0.1 1 ------- null}
+ -t 0.55396 -s 0 -d 4 -p ack -e 40 -c 4 -i 4 -a 4 -x {0.1 4.0 1 ------- null}
- -t 0.55396 -s 0 -d 4 -p ack -e 40 -c 4 -i 4 -a 4 -x {0.1 4.0 1 ------- null}
h -t 0.55396 -s 0 -d 4 -p ack -e 40 -c 4 -i 4 -a 4 -x {0.1 4.0 -1 ------- null}
r -t 0.56228 -s 4 -d 0 -p tcp -e 1040 -c 4 -i 3 -a 4 -x {4.0 0.1 2 ------- null}
+ -t 0.56228 -s 0 -d 4 -p ack -e 40 -c 4 -i 5 -a 4 -x {0.1 4.0 2 ------- null}
- -t 0.56228 -s 0 -d 4 -p ack -e 40 -c 4 -i 5 -a 4 -x {0.1 4.0 2 ------- null}
h -t 0.56228 -s 0 -d 4 -p ack -e 40 -c 4 -i 5 -a 4 -x {0.1 4.0 -1 ------- null}
r -t 0.56928 -s 0 -d 4 -p ack -e 40 -c 4 -i 4 -a 4 -x {0.1 4.0 1 ------- null}
+ -t 0.56928 -s 4 -d 0 -p tcp -e 1040 -c 4 -i 6 -a 4 -x {4.0 0.1 3 ------- null}
- -t 0.56928 -s 4 -d 0 -p tcp -e 1040 -c 4 -i 6 -a 4 -x {4.0 0.1 3 ------- null}
h -t 0.56928 -s 4 -d 0 -p tcp -e 1040 -c 4 -i 6 -a 4 -x {4.0 0.1 -1 ------- null}
+ -t 0.56928 -s 4 -d 0 -p tcp -e 1040 -c 4 -i 7 -a 4 -x {4.0 0.1 4 ------- null}
r -t 0.5776 -s 0 -d 4 -p ack -e 40 -c 4 -i 5 -a 4 -x {0.1 4.0 2 ------- null}
+ -t 0.5776 -s 4 -d 0 -p tcp -e 1040 -c 4 -i 8 -a 4 -x {4.0 0.1 5 ------- null}
+ -t 0.5776 -s 4 -d 0 -p tcp -e 1040 -c 4 -i 9 -a 4 -x {4.0 0.1 6 ------- null}
- -t 0.5776 -s 4 -d 0 -p tcp -e 1040 -c 4 -i 7 -a 4 -x {4.0 0.1 4 ------- null}
h -t 0.5776 -s 4 -d 0 -p tcp -e 1040 -c 4 -i 7 -a 4 -x {4.0 0.1 -1 ------- null}
- -t 0.58592 -s 4 -d 0 -p tcp -e 1040 -c 4 -i 8 -a 4 -x {4.0 0.1 5 ------- null}
h -t 0.58592 -s 4 -d 0 -p tcp -e 1040 -c 4 -i 8 -a 4 -x {4.0 0.1 -1 ------- null}
r -t 0.5926 -s 4 -d 0 -p tcp -e 1040 -c 4 -i 6 -a 4 -x {4.0 0.1 3 ------- null}
+ -t 0.5926 -s 0 -d 4 -p ack -e 40 -c 4 -i 10 -a 4 -x {0.1 4.0 3 ------- null}
- -t 0.5926 -s 0 -d 4 -p ack -e 40 -c 4 -i 10 -a 4 -x {0.1 4.0 3 ------- null}
h -t 0.5926 -s 0 -d 4 -p ack -e 40 -c 4 -i 10 -a 4 -x {0.1 4.0 -1 ------- null}
- -t 0.59424 -s 4 -d 0 -p tcp -e 1040 -c 4 -i 9 -a 4 -x {4.0 0.1 6 ------- null}
h -t 0.59424 -s 4 -d 0 -p tcp -e 1040 -c 4 -i 9 -a 4 -x {4.0 0.1 -1 ------- null}
r -t 0.60092 -s 4 -d 0 -p tcp -e 1040 -c 4 -i 7 -a 4 -x {4.0 0.1 4 ------- null}
+ -t 0.60092 -s 0 -d 4 -p ack -e 40 -c 4 -i 11 -a 4 -x {0.1 4.0 4 ------- null}
- -t 0.60092 -s 0 -d 4 -p ack -e 40 -c 4 -i 11 -a 4 -x {0.1 4.0 4 ------- null}
h -t 0.60092 -s 0 -d 4 -p ack -e 40 -c 4 -i 11 -a 4 -x {0.1 4.0 -1 ------- null}
r -t 0.60792 -s 0 -d 4 -p ack -e 40 -c 4 -i 10 -a 4 -x {0.1 4.0 3 ------- null}
+ -t 0.60792 -s 4 -d 0 -p tcp -e 1040 -c 4 -i 12 -a 4 -x {4.0 0.1 7 ------- null}
- -t 0.60792 -s 4 -d 0 -p tcp -e 1040 -c 4 -i 12 -a 4 -x {4.0 0.1 7 ------- null}
h -t 0.60792 -s 4 -d 0 -p tcp -e 1040 -c 4 -i 12 -a 4 -x {4.0 0.1 -1 ------- null}
+ -t 0.60792 -s 4 -d 0 -p tcp -e 1040 -c 4 -i 13 -a 4 -x {4.0 0.1 8 ------- null}
r -t 0.60924 -s 4 -d 0 -p tcp -e 1040 -c 4 -i 8 -a 4 -x {4.0 0.1 5 ------- null}
+ -t 0.60924 -s 0 -d 4 -p ack -e 40 -c 4 -i 14 -a 4 -x {0.1 4.0 5 ------- null}
- -t 0.60924 -s 0 -d 4 -p ack -e 40 -c 4 -i 14 -a 4 -x {0.1 4.0 5 ------- null}
h -t 0.60924 -s 0 -d 4 -p ack -e 40 -c 4 -i 14 -a 4 -x {0.1 4.0 -1 ------- null}
r -t 0.61624 -s 0 -d 4 -p ack -e 40 -c 4 -i 11 -a 4 -x {0.1 4.0 4 ------- null}
+ -t 0.61624 -s 4 -d 0 -p tcp -e 1040 -c 4 -i 15 -a 4 -x {4.0 0.1 9 ------- null}
+ -t 0.61624 -s 4 -d 0 -p tcp -e 1040 -c 4 -i 16 -a 4 -x {4.0 0.1 10 ------- null}
- -t 0.61624 -s 4 -d 0 -p tcp -e 1040 -c 4 -i 13 -a 4 -x {4.0 0.1 8 ------- null}
h -t 0.61624 -s 4 -d 0 -p tcp -e 1040 -c 4 -i 13 -a 4 -x {4.0 0.1 -1 ------- null}
r -t 0.61756 -s 4 -d 0 -p tcp -e 1040 -c 4 -i 9 -a 4 -x {4.0 0.1 6 ------- null}
+ -t 0.61756 -s 0 -d 4 -p ack -e 40 -c 4 -i 17 -a 4 -x {0.1 4.0 6 ------- null}
- -t 0.61756 -s 0 -d 4 -p ack -e 40 -c 4 -i 17 -a 4 -x {0.1 4.0 6 ------- null}
h -t 0.61756 -s 0 -d 4 -p ack -e 40 -c 4 -i 17 -a 4 -x {0.1 4.0 -1 ------- null}
r -t 0.62456 -s 0 -d 4 -p ack -e 40 -c 4 -i 14 -a 4 -x {0.1 4.0 5 ------- null}
+ -t 0.62456 -s 4 -d 0 -p tcp -e 1040 -c 4 -i 18 -a 4 -x {4.0 0.1 11 ------- null}
+ -t 0.62456 -s 4 -d 0 -p tcp -e 1040 -c 4 -i 19 -a 4 -x {4.0 0.1 12 ------- null}
- -t 0.62456 -s 4 -d 0 -p tcp -e 1040 -c 4 -i 15 -a 4 -x {4.0 0.1 9 ------- null}
h -t 0.62456 -s 4 -d 0 -p tcp -e 1040 -c 4 -i 15 -a 4 -x {4.0 0.1 -1 ------- null}
r -t 0.63124 -s 4 -d 0 -p tcp -e 1040 -c 4 -i 12 -a 4 -x {4.0 0.1 7 ------- null}
+ -t 0.63124 -s 0 -d 4 -p ack -e 40 -c 4 -i 20 -a 4 -x {0.1 4.0 7 ------- null}
- -t 0.63124 -s 0 -d 4 -p ack -e 40 -c 4 -i 20 -a 4 -x {0.1 4.0 7 ------- null}
h -t 0.63124 -s 0 -d 4 -p ack -e 40 -c 4 -i 20 -a 4 -x {0.1 4.0 -1 ------- null}
r -t 0.63288 -s 0 -d 4 -p ack -e 40 -c 4 -i 17 -a 4 -x {0.1 4.0 6 ------- null}
+ -t 0.63288 -s 4 -d 0 -p tcp -e 1040 -c 4 -i 21 -a 4 -x {4.0 0.1 13 ------- null}
+ -t 0.63288 -s 4 -d 0 -p tcp -e 1040 -c 4 -i 22 -a 4 -x {4.0 0.1 14 ------- null}
- -t 0.63288 -s 4 -d 0 -p tcp -e 1040 -c 4 -i 16 -a 4 -x {4.0 0.1 10 ------- null}
h -t 0.63288 -s 4 -d 0 -p tcp -e 1040 -c 4 -i 16 -a 4 -x {4.0 0.1 -1 ------- null}
r -t 0.63956 -s 4 -d 0 -p tcp -e 1040 -c 4 -i 13 -a 4 -x {4.0 0.1 8 ------- null}
+ -t 0.63956 -s 0 -d 4 -p ack -e 40 -c 4 -i 23 -a 4 -x {0.1 4.0 8 ------- null}
- -t 0.63956 -s 0 -d 4 -p ack -e 40 -c 4 -i 23 -a 4 -x {0.1 4.0 8 ------- null}
h -t 0.63956 -s 0 -d 4 -p ack -e 40 -c 4 -i 23 -a 4 -x {0.1 4.0 -1 ------- null}
- -t 0.6412 -s 4 -d 0 -p tcp -e 1040 -c 4 -i 18 -a 4 -x {4.0 0.1 11 ------- null}
h -t 0.6412 -s 4 -d 0 -p tcp -e 1040 -c 4 -i 18 -a 4 -x {4.0 0.1 -1 ------- null}
r -t 0.64656 -s 0 -d 4 -p ack -e 40 -c 4 -i 20 -a 4 -x {0.1 4.0 7 ------- null}
+ -t 0.64656 -s 4 -d 0 -p tcp -e 1040 -c 4 -i 24 -a 4 -x {4.0 0.1 15 ------- null}
+ -t 0.64656 -s 4 -d 0 -p tcp -e 1040 -c 4 -i 25 -a 4 -x {4.0 0.1 16 ------- null}
r -t 0.64788 -s 4 -d 0 -p tcp -e 1040 -c 4 -i 15 -a 4 -x {4.0 0.1 9 ------- null}
+ -t 0.64788 -s 0 -d 4 -p ack -e 40 -c 4 -i 26 -a 4 -x {0.1 4.0 9 ------- null}
- -t 0.64788 -s 0 -d 4 -p ack -e 40 -c 4 -i 26 -a 4 -x {0.1 4.0 9 ------- null}
h -t 0.64788 -s 0 -d 4 -p ack -e 40 -c 4 -i 26 -a 4 -x {0.1 4.0 -1 ------- null}
- -t 0.64952 -s 4 -d 0 -p tcp -e 1040 -c 4 -i 19 -a 4 -x {4.0 0.1 12 ------- null}
h -t 0.64952 -s 4 -d 0 -p tcp -e 1040 -c 4 -i 19 -a 4 -x {4.0 0.1 -1 ------- null}
r -t 0.65488 -s 0 -d 4 -p ack -e 40 -c 4 -i 23 -a 4 -x {0.1 4.0 8 ------- null}
+ -t 0.65488 -s 4 -d 0 -p tcp -e 1040 -c 4 -i 27 -a 4 -x {4.0 0.1 17 ------- null}
+ -t 0.65488 -s 4 -d 0 -p tcp -e 1040 -c 4 -i 28 -a 4 -x {4.0 0.1 18 ------- null}
r -t 0.6562 -s 4 -d 0 -p tcp -e 1040 -c 4 -i 16 -a 4 -x {4.0 0.1 10 ------- null}
+ -t 0.6562 -s 0 -d 4 -p ack -e 40 -c 4 -i 29 -a 4 -x {0.1 4.0 10 ------- null}
- -t 0.6562 -s 0 -d 4 -p ack -e 40 -c 4 -i 29 -a 4 -x {0.1 4.0 10 ------- null}
h -t 0.6562 -s 0 -d 4 -p ack -e 40 -c 4 -i 29 -a 4 -x {0.1 4.0 -1 ------- null}
- -t 0.65784 -s 4 -d 0 -p tcp -e 1040 -c 4 -i 21 -a 4 -x {4.0 0.1 13 ------- null}
h -t 0.65784 -s 4 -d 0 -p tcp -e 1040 -c 4 -i 21 -a 4 -x {4.0 0.1 -1 ------- null}
r -t 0.6632 -s 0 -d 4 -p ack -e 40 -c 4 -i 26 -a 4 -x {0.1 4.0 9 ------- null}
+ -t 0.6632 -s 4 -d 0 -p tcp -e 1040 -c 4 -i 30 -a 4 -x {4.0 0.1 19 ------- null}
+ -t 0.6632 -s 4 -d 0 -p tcp -e 1040 -c 4 -i 31 -a 4 -x {4.0 0.1 20 ------- null}
r -t 0.66452 -s 4 -d 0 -p tcp -e 1040 -c 4 -i 18 -a 4 -x {4.0 0.1 11 ------- null}
+ -t 0.66452 -s 0 -d 4 -p ack -e 40 -c 4 -i 32 -a 4 -x {0.1 4.0 11 ------- null}
- -t 0.66452 -s 0 -d 4 -p ack -e 40 -c 4 -i 32 -a 4 -x {0.1 4.0 11 ------- null}
h -t 0.66452 -s 0 -d 4 -p ack -e 40 -c 4 -i 32 -a 4 -x {0.1 4.0 -1 ------- null}
- -t 0.66616 -s 4 -d 0 -p tcp -e 1040 -c 4 -i 22 -a 4 -x {4.0 0.1 14 ------- null}
h -t 0.66616 -s 4 -d 0 -p tcp -e 1040 -c 4 -i 22 -a 4 -x {4.0 0.1 -1 ------- null}
r -t 0.67152 -s 0 -d 4 -p ack -e 40 -c 4 -i 29 -a 4 -x {0.1 4.0 10 ------- null}
+ -t 0.67152 -s 4 -d 0 -p tcp -e 1040 -c 4 -i 33 -a 4 -x {4.0 0.1 21 ------- null}
+ -t 0.67152 -s 4 -d 0 -p tcp -e 1040 -c 4 -i 34 -a 4 -x {4.0 0.1 22 ------- null}
r -t 0.67284 -s 4 -d 0 -p tcp -e 1040 -c 4 -i 19 -a 4 -x {4.0 0.1 12 ------- null}
+ -t 0.67284 -s 0 -d 4 -p ack -e 40 -c 4 -i 35 -a 4 -x {0.1 4.0 12 ------- null}
- -t 0.67284 -s 0 -d 4 -p ack -e 40 -c 4 -i 35 -a 4 -x {0.1 4.0 12 ------- null}
h -t 0.67284 -s 0 -d 4 -p ack -e 40 -c 4 -i 35 -a 4 -x {0.1 4.0 -1 ------- null}
- -t 0.67448 -s 4 -d 0 -p tcp -e 1040 -c 4 -i 24 -a 4 -x {4.0 0.1 15 ------- null}
h -t 0.67448 -s 4 -d 0 -p tcp -e 1040 -c 4 -i 24 -a 4 -x {4.0 0.1 -1 ------- null}
r -t 0.67984 -s 0 -d 4 -p ack -e 40 -c 4 -i 32 -a 4 -x {0.1 4.0 11 ------- null}
+ -t 0.67984 -s 4 -d 0 -p tcp -e 1040 -c 4 -i 36 -a 4 -x {4.0 0.1 23 ------- null}
+ -t 0.67984 -s 4 -d 0 -p tcp -e 1040 -c 4 -i 37 -a 4 -x {4.0 0.1 24 ------- null}
r -t 0.68116 -s 4 -d 0 -p tcp -e 1040 -c 4 -i 21 -a 4 -x {4.0 0.1 13 ------- null}
+ -t 0.68116 -s 0 -d 4 -p ack -e 40 -c 4 -i 38 -a 4 -x {0.1 4.0 13 ------- null}
- -t 0.68116 -s 0 -d 4 -p ack -e 40 -c 4 -i 38 -a 4 -x {0.1 4.0 13 ------- null}
h -t 0.68116 -s 0 -d 4 -p ack -e 40 -c 4 -i 38 -a 4 -x {0.1 4.0 -1 ------- null}
- -t 0.6828 -s 4 -d 0 -p tcp -e 1040 -c 4 -i 25 -a 4 -x {4.0 0.1 16 ------- null}
h -t 0.6828 -s 4 -d 0 -p tcp -e 1040 -c 4 -i 25 -a 4 -x {4.0 0.1 -1 ------- null}
r -t 0.68816 -s 0 -d 4 -p ack -e 40 -c 4 -i 35 -a 4 -x {0.1 4.0 12 ------- null}
+ -t 0.68816 -s 4 -d 0 -p tcp -e 1040 -c 4 -i 39 -a 4 -x {4.0 0.1 25 ------- null}
+ -t 0.68816 -s 4 -d 0 -p tcp -e 1040 -c 4 -i 40 -a 4 -x {4.0 0.1 26 ------- null}
r -t 0.68948 -s 4 -d 0 -p tcp -e 1040 -c 4 -i 22 -a 4 -x {4.0 0.1 14 ------- null}
+ -t 0.68948 -s 0 -d 4 -p ack -e 40 -c 4 -i 41 -a 4 -x {0.1 4.0 14 ------- null}
- -t 0.68948 -s 0 -d 4 -p ack -e 40 -c 4 -i 41 -a 4 -x {0.1 4.0 14 ------- null}
h -t 0.68948 -s 0 -d 4 -p ack -e 40 -c 4 -i 41 -a 4 -x {0.1 4.0 -1 ------- null}
- -t 0.69112 -s 4 -d 0 -p tcp -e 1040 -c 4 -i 27 -a 4 -x {4.0 0.1 17 ------- null}
h -t 0.69112 -s 4 -d 0 -p tcp -e 1040 -c 4 -i 27 -a 4 -x {4.0 0.1 -1 ------- null}
r -t 0.69648 -s 0 -d 4 -p ack -e 40 -c 4 -i 38 -a 4 -x {0.1 4.0 13 ------- null}
+ -t 0.69648 -s 4 -d 0 -p tcp -e 1040 -c 4 -i 42 -a 4 -x {4.0 0.1 27 ------- null}
+ -t 0.69648 -s 4 -d 0 -p tcp -e 1040 -c 4 -i 43 -a 4 -x {4.0 0.1 28 ------- null}
r -t 0.6978 -s 4 -d 0 -p tcp -e 1040 -c 4 -i 24 -a 4 -x {4.0 0.1 15 ------- null}
+ -t 0.6978 -s 0 -d 4 -p ack -e 40 -c 4 -i 44 -a 4 -x {0.1 4.0 15 ------- null}
- -t 0.6978 -s 0 -d 4 -p ack -e 40 -c 4 -i 44 -a 4 -x {0.1 4.0 15 ------- null}
h -t 0.6978 -s 0 -d 4 -p ack -e 40 -c 4 -i 44 -a 4 -x {0.1 4.0 -1 ------- null}
- -t 0.69944 -s 4 -d 0 -p tcp -e 1040 -c 4 -i 28 -a 4 -x {4.0 0.1 18 ------- null}
h -t 0.69944 -s 4 -d 0 -p tcp -e 1040 -c 4 -i 28 -a 4 -x {4.0 0.1 -1 ------- null}
r -t 0.7048 -s 0 -d 4 -p ack -e 40 -c 4 -i 41 -a 4 -x {0.1 4.0 14 ------- null}
+ -t 0.7048 -s 4 -d 0 -p tcp -e 1040 -c 4 -i 45 -a 4 -x {4.0 0.1 29 ------- null}
+ -t 0.7048 -s 4 -d 0 -p tcp -e 1040 -c 4 -i 46 -a 4 -x {4.0 0.1 30 ------- null}
r -t 0.70612 -s 4 -d 0 -p tcp -e 1040 -c 4 -i 25 -a 4 -x {4.0 0.1 16 ------- null}
+ -t 0.70612 -s 0 -d 4 -p ack -e 40 -c 4 -i 47 -a 4 -x {0.1 4.0 16 ------- null}
- -t 0.70612 -s 0 -d 4 -p ack -e 40 -c 4 -i 47 -a 4 -x {0.1 4.0 16 ------- null}
h -t 0.70612 -s 0 -d 4 -p ack -e 40 -c 4 -i 47 -a 4 -x {0.1 4.0 -1 ------- null}
- -t 0.70776 -s 4 -d 0 -p tcp -e 1040 -c 4 -i 30 -a 4 -x {4.0 0.1 19 ------- null}
h -t 0.70776 -s 4 -d 0 -p tcp -e 1040 -c 4 -i 30 -a 4 -x {4.0 0.1 -1 ------- null}
r -t 0.71312 -s 0 -d 4 -p ack -e 40 -c 4 -i 44 -a 4 -x {0.1 4.0 15 ------- null}
+ -t 0.71312 -s 4 -d 0 -p tcp -e 1040 -c 4 -i 48 -a 4 -x {4.0 0.1 31 ------- null}
+ -t 0.71312 -s 4 -d 0 -p tcp -e 1040 -c 4 -i 49 -a 4 -x {4.0 0.1 32 ------- null}
r -t 0.71444 -s 4 -d 0 -p tcp -e 1040 -c 4 -i 27 -a 4 -x {4.0 0.1 17 ------- null}
+ -t 0.71444 -s 0 -d 4 -p ack -e 40 -c 4 -i 50 -a 4 -x {0.1 4.0 17 ------- null}
- -t 0.71444 -s 0 -d 4 -p ack -e 40 -c 4 -i 50 -a 4 -x {0.1 4.0 17 ------- null}
h -t 0.71444 -s 0 -d 4 -p ack -e 40 -c 4 -i 50 -a 4 -x {0.1 4.0 -1 ------- null}
- -t 0.71608 -s 4 -d 0 -p tcp -e 1040 -c 4 -i 31 -a 4 -x {4.0 0.1 20 ------- null}
h -t 0.71608 -s 4 -d 0 -p tcp -e 1040 -c 4 -i 31 -a 4 -x {4.0 0.1 -1 ------- null}
r -t 0.72144 -s 0 -d 4 -p ack -e 40 -c 4 -i 47 -a 4 -x {0.1 4.0 16 ------- null}
+ -t 0.72144 -s 4 -d 0 -p tcp -e 1040 -c 4 -i 51 -a 4 -x {4.0 0.1 33 ------- null}
+ -t 0.72144 -s 4 -d 0 -p tcp -e 1040 -c 4 -i 52 -a 4 -x {4.0 0.1 34 ------- null}
r -t 0.72276 -s 4 -d 0 -p tcp -e 1040 -c 4 -i 28 -a 4 -x {4.0 0.1 18 ------- null}
+ -t 0.72276 -s 0 -d 4 -p ack -e 40 -c 4 -i 53 -a 4 -x {0.1 4.0 18 ------- null}
- -t 0.72276 -s 0 -d 4 -p ack -e 40 -c 4 -i 53 -a 4 -x {0.1 4.0 18 ------- null}
h -t 0.72276 -s 0 -d 4 -p ack -e 40 -c 4 -i 53 -a 4 -x {0.1 4.0 -1 ------- null}
- -t 0.7244 -s 4 -d 0 -p tcp -e 1040 -c 4 -i 33 -a 4 -x {4.0 0.1 21 ------- null}
h -t 0.7244 -s 4 -d 0 -p tcp -e 1040 -c 4 -i 33 -a 4 -x {4.0 0.1 -1 ------- null}
r -t 0.72976 -s 0 -d 4 -p ack -e 40 -c 4 -i 50 -a 4 -x {0.1 4.0 17 ------- null}
+ -t 0.72976 -s 4 -d 0 -p tcp -e 1040 -c 4 -i 54 -a 4 -x {4.0 0.1 35 ------- null}
+ -t 0.72976 -s 4 -d 0 -p tcp -e 1040 -c 4 -i 55 -a 4 -x {4.0 0.1 36 ------- null}
r -t 0.73108 -s 4 -d 0 -p tcp -e 1040 -c 4 -i 30 -a 4 -x {4.0 0.1 19 ------- null}
+ -t 0.73108 -s 0 -d 4 -p ack -e 40 -c 4 -i 56 -a 4 -x {0.1 4.0 19 ------- null}
- -t 0.73108 -s 0 -d 4 -p ack -e 40 -c 4 -i 56 -a 4 -x {0.1 4.0 19 ------- null}
h -t 0.73108 -s 0 -d 4 -p ack -e 40 -c 4 -i 56 -a 4 -x {0.1 4.0 -1 ------- null}
- -t 0.73272 -s 4 -d 0 -p tcp -e 1040 -c 4 -i 34 -a 4 -x {4.0 0.1 22 ------- null}
h -t 0.73272 -s 4 -d 0 -p tcp -e 1040 -c 4 -i 34 -a 4 -x {4.0 0.1 -1 ------- null}
r -t 0.73808 -s 0 -d 4 -p ack -e 40 -c 4 -i 53 -a 4 -x {0.1 4.0 18 ------- null}
+ -t 0.73808 -s 4 -d 0 -p tcp -e 1040 -c 4 -i 57 -a 4 -x {4.0 0.1 37 ------- null}
+ -t 0.73808 -s 4 -d 0 -p tcp -e 1040 -c 4 -i 58 -a 4 -x {4.0 0.1 38 ------- null}
r -t 0.7394 -s 4 -d 0 -p tcp -e 1040 -c 4 -i 31 -a 4 -x {4.0 0.1 20 ------- null}
+ -t 0.7394 -s 0 -d 4 -p ack -e 40 -c 4 -i 59 -a 4 -x {0.1 4.0 20 ------- null}
- -t 0.7394 -s 0 -d 4 -p ack -e 40 -c 4 -i 59 -a 4 -x {0.1 4.0 20 ------- null}
h -t 0.7394 -s 0 -d 4 -p ack -e 40 -c 4 -i 59 -a 4 -x {0.1 4.0 -1 ------- null}
- -t 0.74104 -s 4 -d 0 -p tcp -e 1040 -c 4 -i 36 -a 4 -x {4.0 0.1 23 ------- null}
h -t 0.74104 -s 4 -d 0 -p tcp -e 1040 -c 4 -i 36 -a 4 -x {4.0 0.1 -1 ------- null}
r -t 0.7464 -s 0 -d 4 -p ack -e 40 -c 4 -i 56 -a 4 -x {0.1 4.0 19 ------- null}
+ -t 0.7464 -s 4 -d 0 -p tcp -e 1040 -c 4 -i 60 -a 4 -x {4.0 0.1 39 ------- null}
r -t 0.74772 -s 4 -d 0 -p tcp -e 1040 -c 4 -i 33 -a 4 -x {4.0 0.1 21 ------- null}
+ -t 0.74772 -s 0 -d 4 -p ack -e 40 -c 4 -i 61 -a 4 -x {0.1 4.0 21 ------- null}
- -t 0.74772 -s 0 -d 4 -p ack -e 40 -c 4 -i 61 -a 4 -x {0.1 4.0 21 ------- null}
h -t 0.74772 -s 0 -d 4 -p ack -e 40 -c 4 -i 61 -a 4 -x {0.1 4.0 -1 ------- null}
- -t 0.74936 -s 4 -d 0 -p tcp -e 1040 -c 4 -i 37 -a 4 -x {4.0 0.1 24 ------- null}
h -t 0.74936 -s 4 -d 0 -p tcp -e 1040 -c 4 -i 37 -a 4 -x {4.0 0.1 -1 ------- null}
r -t 0.75472 -s 0 -d 4 -p ack -e 40 -c 4 -i 59 -a 4 -x {0.1 4.0 20 ------- null}
+ -t 0.75472 -s 4 -d 0 -p tcp -e 1040 -c 4 -i 62 -a 4 -x {4.0 0.1 40 ------- null}
r -t 0.75604 -s 4 -d 0 -p tcp -e 1040 -c 4 -i 34 -a 4 -x {4.0 0.1 22 ------- null}
+ -t 0.75604 -s 0 -d 4 -p ack -e 40 -c 4 -i 63 -a 4 -x {0.1 4.0 22 ------- null}
- -t 0.75604 -s 0 -d 4 -p ack -e 40 -c 4 -i 63 -a 4 -x {0.1 4.0 22 ------- null}
h -t 0.75604 -s 0 -d 4 -p ack -e 40 -c 4 -i 63 -a 4 -x {0.1 4.0 -1 ------- null}
- -t 0.75768 -s 4 -d 0 -p tcp -e 1040 -c 4 -i 39 -a 4 -x {4.0 0.1 25 ------- null}
h -t 0.75768 -s 4 -d 0 -p tcp -e 1040 -c 4 -i 39 -a 4 -x {4.0 0.1 -1 ------- null}
r -t 0.76304 -s 0 -d 4 -p ack -e 40 -c 4 -i 61 -a 4 -x {0.1 4.0 21 ------- null}
+ -t 0.76304 -s 4 -d 0 -p tcp -e 1040 -c 4 -i 64 -a 4 -x {4.0 0.1 41 ------- null}
r -t 0.76436 -s 4 -d 0 -p tcp -e 1040 -c 4 -i 36 -a 4 -x {4.0 0.1 23 ------- null}
+ -t 0.76436 -s 0 -d 4 -p ack -e 40 -c 4 -i 65 -a 4 -x {0.1 4.0 23 ------- null}
- -t 0.76436 -s 0 -d 4 -p ack -e 40 -c 4 -i 65 -a 4 -x {0.1 4.0 23 ------- null}
h -t 0.76436 -s 0 -d 4 -p ack -e 40 -c 4 -i 65 -a 4 -x {0.1 4.0 -1 ------- null}
- -t 0.766 -s 4 -d 0 -p tcp -e 1040 -c 4 -i 40 -a 4 -x {4.0 0.1 26 ------- null}
h -t 0.766 -s 4 -d 0 -p tcp -e 1040 -c 4 -i 40 -a 4 -x {4.0 0.1 -1 ------- null}
r -t 0.77136 -s 0 -d 4 -p ack -e 40 -c 4 -i 63 -a 4 -x {0.1 4.0 22 ------- null}
+ -t 0.77136 -s 4 -d 0 -p tcp -e 1040 -c 4 -i 66 -a 4 -x {4.0 0.1 42 ------- null}
r -t 0.77268 -s 4 -d 0 -p tcp -e 1040 -c 4 -i 37 -a 4 -x {4.0 0.1 24 ------- null}
+ -t 0.77268 -s 0 -d 4 -p ack -e 40 -c 4 -i 67 -a 4 -x {0.1 4.0 24 ------- null}
- -t 0.77268 -s 0 -d 4 -p ack -e 40 -c 4 -i 67 -a 4 -x {0.1 4.0 24 ------- null}
h -t 0.77268 -s 0 -d 4 -p ack -e 40 -c 4 -i 67 -a 4 -x {0.1 4.0 -1 ------- null}
- -t 0.77432 -s 4 -d 0 -p tcp -e 1040 -c 4 -i 42 -a 4 -x {4.0 0.1 27 ------- null}
h -t 0.77432 -s 4 -d 0 -p tcp -e 1040 -c 4 -i 42 -a 4 -x {4.0 0.1 -1 ------- null}
r -t 0.77968 -s 0 -d 4 -p ack -e 40 -c 4 -i 65 -a 4 -x {0.1 4.0 23 ------- null}
+ -t 0.77968 -s 4 -d 0 -p tcp -e 1040 -c 4 -i 68 -a 4 -x {4.0 0.1 43 ------- null}
r -t 0.781 -s 4 -d 0 -p tcp -e 1040 -c 4 -i 39 -a 4 -x {4.0 0.1 25 ------- null}
+ -t 0.781 -s 0 -d 4 -p ack -e 40 -c 4 -i 69 -a 4 -x {0.1 4.0 25 ------- null}
- -t 0.781 -s 0 -d 4 -p ack -e 40 -c 4 -i 69 -a 4 -x {0.1 4.0 25 ------- null}
h -t 0.781 -s 0 -d 4 -p ack -e 40 -c 4 -i 69 -a 4 -x {0.1 4.0 -1 ------- null}
- -t 0.78264 -s 4 -d 0 -p tcp -e 1040 -c 4 -i 43 -a 4 -x {4.0 0.1 28 ------- null}
h -t 0.78264 -s 4 -d 0 -p tcp -e 1040 -c 4 -i 43 -a 4 -x {4.0 0.1 -1 ------- null}
r -t 0.788 -s 0 -d 4 -p ack -e 40 -c 4 -i 67 -a 4 -x {0.1 4.0 24 ------- null}
+ -t 0.788 -s 4 -d 0 -p tcp -e 1040 -c 4 -i 70 -a 4 -x {4.0 0.1 44 ------- null}
r -t 0.78932 -s 4 -d 0 -p tcp -e 1040 -c 4 -i 40 -a 4 -x {4.0 0.1 26 ------- null}
+ -t 0.78932 -s 0 -d 4 -p ack -e 40 -c 4 -i 71 -a 4 -x {0.1 4.0 26 ------- null}
- -t 0.78932 -s 0 -d 4 -p ack -e 40 -c 4 -i 71 -a 4 -x {0.1 4.0 26 ------- null}
h -t 0.78932 -s 0 -d 4 -p ack -e 40 -c 4 -i 71 -a 4 -x {0.1 4.0 -1 ------- null}
- -t 0.79096 -s 4 -d 0 -p tcp -e 1040 -c 4 -i 45 -a 4 -x {4.0 0.1 29 ------- null}
h -t 0.79096 -s 4 -d 0 -p tcp -e 1040 -c 4 -i 45 -a 4 -x {4.0 0.1 -1 ------- null}
r -t 0.79632 -s 0 -d 4 -p ack -e 40 -c 4 -i 69 -a 4 -x {0.1 4.0 25 ------- null}
+ -t 0.79632 -s 4 -d 0 -p tcp -e 1040 -c 4 -i 72 -a 4 -x {4.0 0.1 45 ------- null}
r -t 0.79764 -s 4 -d 0 -p tcp -e 1040 -c 4 -i 42 -a 4 -x {4.0 0.1 27 ------- null}
+ -t 0.79764 -s 0 -d 4 -p ack -e 40 -c 4 -i 73 -a 4 -x {0.1 4.0 27 ------- null}
- -t 0.79764 -s 0 -d 4 -p ack -e 40 -c 4 -i 73 -a 4 -x {0.1 4.0 27 ------- null}
h -t 0.79764 -s 0 -d 4 -p ack -e 40 -c 4 -i 73 -a 4 -x {0.1 4.0 -1 ------- null}
- -t 0.79928 -s 4 -d 0 -p tcp -e 1040 -c 4 -i 46 -a 4 -x {4.0 0.1 30 ------- null}
h -t 0.79928 -s 4 -d 0 -p tcp -e 1040 -c 4 -i 46 -a 4 -x {4.0 0.1 -1 ------- null}
+ -t 0.8 -s 1 -d 2 -p cbr -e 1000 -c 1 -i 74 -a 1 -x {1.0 3.2 0 ------- null}
- -t 0.8 -s 1 -d 2 -p cbr -e 1000 -c 1 -i 74 -a 1 -x {1.0 3.2 0 ------- null}
h -t 0.8 -s 1 -d 2 -p cbr -e 1000 -c 1 -i 74 -a 1 -x {1.0 3.2 -1 ------- null}
r -t 0.80464 -s 0 -d 4 -p ack -e 40 -c 4 -i 71 -a 4 -x {0.1 4.0 26 ------- null}
+ -t 0.80464 -s 4 -d 0 -p tcp -e 1040 -c 4 -i 75 -a 4 -x {4.0 0.1 46 ------- null}
r -t 0.80596 -s 4 -d 0 -p tcp -e 1040 -c 4 -i 43 -a 4 -x {4.0 0.1 28 ------- null}
+ -t 0.80596 -s 0 -d 4 -p ack -e 40 -c 4 -i 76 -a 4 -x {0.1 4.0 28 ------- null}
- -t 0.80596 -s 0 -d 4 -p ack -e 40 -c 4 -i 76 -a 4 -x {0.1 4.0 28 ------- null}
h -t 0.80596 -s 0 -d 4 -p ack -e 40 -c 4 -i 76 -a 4 -x {0.1 4.0 -1 ------- null}
- -t 0.8076 -s 4 -d 0 -p tcp -e 1040 -c 4 -i 48 -a 4 -x {4.0 0.1 31 ------- null}
h -t 0.8076 -s 4 -d 0 -p tcp -e 1040 -c 4 -i 48 -a 4 -x {4.0 0.1 -1 ------- null}
+ -t 0.808 -s 1 -d 2 -p cbr -e 1000 -c 1 -i 77 -a 1 -x {1.0 3.2 1 ------- null}
- -t 0.808 -s 1 -d 2 -p cbr -e 1000 -c 1 -i 77 -a 1 -x {1.0 3.2 1 ------- null}
h -t 0.808 -s 1 -d 2 -p cbr -e 1000 -c 1 -i 77 -a 1 -x {1.0 3.2 -1 ------- null}
r -t 0.81296 -s 0 -d 4 -p ack -e 40 -c 4 -i 73 -a 4 -x {0.1 4.0 27 ------- null}
+ -t 0.81296 -s 4 -d 0 -p tcp -e 1040 -c 4 -i 78 -a 4 -x {4.0 0.1 47 ------- null}
r -t 0.81428 -s 4 -d 0 -p tcp -e 1040 -c 4 -i 45 -a 4 -x {4.0 0.1 29 ------- null}
+ -t 0.81428 -s 0 -d 4 -p ack -e 40 -c 4 -i 79 -a 4 -x {0.1 4.0 29 ------- null}
- -t 0.81428 -s 0 -d 4 -p ack -e 40 -c 4 -i 79 -a 4 -x {0.1 4.0 29 ------- null}
h -t 0.81428 -s 0 -d 4 -p ack -e 40 -c 4 -i 79 -a 4 -x {0.1 4.0 -1 ------- null}
- -t 0.81592 -s 4 -d 0 -p tcp -e 1040 -c 4 -i 49 -a 4 -x {4.0 0.1 32 ------- null}
h -t 0.81592 -s 4 -d 0 -p tcp -e 1040 -c 4 -i 49 -a 4 -x {4.0 0.1 -1 ------- null}
+ -t 0.816 -s 1 -d 2 -p cbr -e 1000 -c 1 -i 80 -a 1 -x {1.0 3.2 2 ------- null}
- -t 0.816 -s 1 -d 2 -p cbr -e 1000 -c 1 -i 80 -a 1 -x {1.0 3.2 2 ------- null}
h -t 0.816 -s 1 -d 2 -p cbr -e 1000 -c 1 -i 80 -a 1 -x {1.0 3.2 -1 ------- null}
r -t 0.82128 -s 0 -d 4 -p ack -e 40 -c 4 -i 76 -a 4 -x {0.1 4.0 28 ------- null}
+ -t 0.82128 -s 4 -d 0 -p tcp -e 1040 -c 4 -i 81 -a 4 -x {4.0 0.1 48 ------- null}
r -t 0.8226 -s 4 -d 0 -p tcp -e 1040 -c 4 -i 46 -a 4 -x {4.0 0.1 30 ------- null}
+ -t 0.8226 -s 0 -d 4 -p ack -e 40 -c 4 -i 82 -a 4 -x {0.1 4.0 30 ------- null}
- -t 0.8226 -s 0 -d 4 -p ack -e 40 -c 4 -i 82 -a 4 -x {0.1 4.0 30 ------- null}
h -t 0.8226 -s 0 -d 4 -p ack -e 40 -c 4 -i 82 -a 4 -x {0.1 4.0 -1 ------- null}
r -t 0.823 -s 1 -d 2 -p cbr -e 1000 -c 1 -i 74 -a 1 -x {1.0 3.2 0 ------- null}
+ -t 0.823 -s 2 -d 3 -p cbr -e 1000 -c 1 -i 74 -a 1 -x {1.0 3.2 0 ------- null}
- -t 0.823 -s 2 -d 3 -p cbr -e 1000 -c 1 -i 74 -a 1 -x {1.0 3.2 0 ------- null}
h -t 0.823 -s 2 -d 3 -p cbr -e 1000 -c 1 -i 74 -a 1 -x {1.0 3.2 -1 ------- null}
+ -t 0.824 -s 1 -d 2 -p cbr -e 1000 -c 1 -i 83 -a 1 -x {1.0 3.2 3 ------- null}
- -t 0.824 -s 1 -d 2 -p cbr -e 1000 -c 1 -i 83 -a 1 -x {1.0 3.2 3 ------- null}
h -t 0.824 -s 1 -d 2 -p cbr -e 1000 -c 1 -i 83 -a 1 -x {1.0 3.2 -1 ------- null}
- -t 0.82424 -s 4 -d 0 -p tcp -e 1040 -c 4 -i 51 -a 4 -x {4.0 0.1 33 ------- null}
h -t 0.82424 -s 4 -d 0 -p tcp -e 1040 -c 4 -i 51 -a 4 -x {4.0 0.1 -1 ------- null}
r -t 0.8296 -s 0 -d 4 -p ack -e 40 -c 4 -i 79 -a 4 -x {0.1 4.0 29 ------- null}
+ -t 0.8296 -s 4 -d 0 -p tcp -e 1040 -c 4 -i 84 -a 4 -x {4.0 0.1 49 ------- null}
r -t 0.83092 -s 4 -d 0 -p tcp -e 1040 -c 4 -i 48 -a 4 -x {4.0 0.1 31 ------- null}
+ -t 0.83092 -s 0 -d 4 -p ack -e 40 -c 4 -i 85 -a 4 -x {0.1 4.0 31 ------- null}
- -t 0.83092 -s 0 -d 4 -p ack -e 40 -c 4 -i 85 -a 4 -x {0.1 4.0 31 ------- null}
h -t 0.83092 -s 0 -d 4 -p ack -e 40 -c 4 -i 85 -a 4 -x {0.1 4.0 -1 ------- null}
r -t 0.831 -s 1 -d 2 -p cbr -e 1000 -c 1 -i 77 -a 1 -x {1.0 3.2 1 ------- null}
+ -t 0.831 -s 2 -d 3 -p cbr -e 1000 -c 1 -i 77 -a 1 -x {1.0 3.2 1 ------- null}
- -t 0.831 -s 2 -d 3 -p cbr -e 1000 -c 1 -i 77 -a 1 -x {1.0 3.2 1 ------- null}
h -t 0.831 -s 2 -d 3 -p cbr -e 1000 -c 1 -i 77 -a 1 -x {1.0 3.2 -1 ------- null}
+ -t 0.832 -s 1 -d 2 -p cbr -e 1000 -c 1 -i 86 -a 1 -x {1.0 3.2 4 ------- null}
- -t 0.832 -s 1 -d 2 -p cbr -e 1000 -c 1 -i 86 -a 1 -x {1.0 3.2 4 ------- null}
h -t 0.832 -s 1 -d 2 -p cbr -e 1000 -c 1 -i 86 -a 1 -x {1.0 3.2 -1 ------- null}
- -t 0.83256 -s 4 -d 0 -p tcp -e 1040 -c 4 -i 52 -a 4 -x {4.0 0.1 34 ------- null}
h -t 0.83256 -s 4 -d 0 -p tcp -e 1040 -c 4 -i 52 -a 4 -x {4.0 0.1 -1 ------- null}
r -t 0.83792 -s 0 -d 4 -p ack -e 40 -c 4 -i 82 -a 4 -x {0.1 4.0 30 ------- null}
+ -t 0.83792 -s 4 -d 0 -p tcp -e 1040 -c 4 -i 87 -a 4 -x {4.0 0.1 50 ------- null}
r -t 0.839 -s 1 -d 2 -p cbr -e 1000 -c 1 -i 80 -a 1 -x {1.0 3.2 2 ------- null}
+ -t 0.839 -s 2 -d 3 -p cbr -e 1000 -c 1 -i 80 -a 1 -x {1.0 3.2 2 ------- null}
- -t 0.839 -s 2 -d 3 -p cbr -e 1000 -c 1 -i 80 -a 1 -x {1.0 3.2 2 ------- null}
h -t 0.839 -s 2 -d 3 -p cbr -e 1000 -c 1 -i 80 -a 1 -x {1.0 3.2 -1 ------- null}
r -t 0.83924 -s 4 -d 0 -p tcp -e 1040 -c 4 -i 49 -a 4 -x {4.0 0.1 32 ------- null}
+ -t 0.83924 -s 0 -d 4 -p ack -e 40 -c 4 -i 88 -a 4 -x {0.1 4.0 32 ------- null}
- -t 0.83924 -s 0 -d 4 -p ack -e 40 -c 4 -i 88 -a 4 -x {0.1 4.0 32 ------- null}
h -t 0.83924 -s 0 -d 4 -p ack -e 40 -c 4 -i 88 -a 4 -x {0.1 4.0 -1 ------- null}
+ -t 0.84 -s 1 -d 2 -p cbr -e 1000 -c 1 -i 89 -a 1 -x {1.0 3.2 5 ------- null}
- -t 0.84 -s 1 -d 2 -p cbr -e 1000 -c 1 -i 89 -a 1 -x {1.0 3.2 5 ------- null}
h -t 0.84 -s 1 -d 2 -p cbr -e 1000 -c 1 -i 89 -a 1 -x {1.0 3.2 -1 ------- null}
- -t 0.84088 -s 4 -d 0 -p tcp -e 1040 -c 4 -i 54 -a 4 -x {4.0 0.1 35 ------- null}
h -t 0.84088 -s 4 -d 0 -p tcp -e 1040 -c 4 -i 54 -a 4 -x {4.0 0.1 -1 ------- null}
r -t 0.846 -s 2 -d 3 -p cbr -e 1000 -c 1 -i 74 -a 1 -x {1.0 3.2 0 ------- null}
r -t 0.84624 -s 0 -d 4 -p ack -e 40 -c 4 -i 85 -a 4 -x {0.1 4.0 31 ------- null}
+ -t 0.84624 -s 4 -d 0 -p tcp -e 1040 -c 4 -i 90 -a 4 -x {4.0 0.1 51 ------- null}
r -t 0.847 -s 1 -d 2 -p cbr -e 1000 -c 1 -i 83 -a 1 -x {1.0 3.2 3 ------- null}
+ -t 0.847 -s 2 -d 3 -p cbr -e 1000 -c 1 -i 83 -a 1 -x {1.0 3.2 3 ------- null}
- -t 0.847 -s 2 -d 3 -p cbr -e 1000 -c 1 -i 83 -a 1 -x {1.0 3.2 3 ------- null}
h -t 0.847 -s 2 -d 3 -p cbr -e 1000 -c 1 -i 83 -a 1 -x {1.0 3.2 -1 ------- null}
r -t 0.84756 -s 4 -d 0 -p tcp -e 1040 -c 4 -i 51 -a 4 -x {4.0 0.1 33 ------- null}
+ -t 0.84756 -s 0 -d 4 -p ack -e 40 -c 4 -i 91 -a 4 -x {0.1 4.0 33 ------- null}
- -t 0.84756 -s 0 -d 4 -p ack -e 40 -c 4 -i 91 -a 4 -x {0.1 4.0 33 ------- null}
h -t 0.84756 -s 0 -d 4 -p ack -e 40 -c 4 -i 91 -a 4 -x {0.1 4.0 -1 ------- null}
+ -t 0.848 -s 1 -d 2 -p cbr -e 1000 -c 1 -i 92 -a 1 -x {1.0 3.2 6 ------- null}
- -t 0.848 -s 1 -d 2 -p cbr -e 1000 -c 1 -i 92 -a 1 -x {1.0 3.2 6 ------- null}
h -t 0.848 -s 1 -d 2 -p cbr -e 1000 -c 1 -i 92 -a 1 -x {1.0 3.2 -1 ------- null}
- -t 0.8492 -s 4 -d 0 -p tcp -e 1040 -c 4 -i 55 -a 4 -x {4.0 0.1 36 ------- null}
h -t 0.8492 -s 4 -d 0 -p tcp -e 1040 -c 4 -i 55 -a 4 -x {4.0 0.1 -1 ------- null}
r -t 0.854 -s 2 -d 3 -p cbr -e 1000 -c 1 -i 77 -a 1 -x {1.0 3.2 1 ------- null}
r -t 0.85456 -s 0 -d 4 -p ack -e 40 -c 4 -i 88 -a 4 -x {0.1 4.0 32 ------- null}
+ -t 0.85456 -s 4 -d 0 -p tcp -e 1040 -c 4 -i 93 -a 4 -x {4.0 0.1 52 ------- null}
r -t 0.855 -s 1 -d 2 -p cbr -e 1000 -c 1 -i 86 -a 1 -x {1.0 3.2 4 ------- null}
+ -t 0.855 -s 2 -d 3 -p cbr -e 1000 -c 1 -i 86 -a 1 -x {1.0 3.2 4 ------- null}
- -t 0.855 -s 2 -d 3 -p cbr -e 1000 -c 1 -i 86 -a 1 -x {1.0 3.2 4 ------- null}
h -t 0.855 -s 2 -d 3 -p cbr -e 1000 -c 1 -i 86 -a 1 -x {1.0 3.2 -1 ------- null}
r -t 0.85588 -s 4 -d 0 -p tcp -e 1040 -c 4 -i 52 -a 4 -x {4.0 0.1 34 ------- null}
+ -t 0.85588 -s 0 -d 4 -p ack -e 40 -c 4 -i 94 -a 4 -x {0.1 4.0 34 ------- null}
- -t 0.85588 -s 0 -d 4 -p ack -e 40 -c 4 -i 94 -a 4 -x {0.1 4.0 34 ------- null}
h -t 0.85588 -s 0 -d 4 -p ack -e 40 -c 4 -i 94 -a 4 -x {0.1 4.0 -1 ------- null}
+ -t 0.856 -s 1 -d 2 -p cbr -e 1000 -c 1 -i 95 -a 1 -x {1.0 3.2 7 ------- null}
- -t 0.856 -s 1 -d 2 -p cbr -e 1000 -c 1 -i 95 -a 1 -x {1.0 3.2 7 ------- null}
h -t 0.856 -s 1 -d 2 -p cbr -e 1000 -c 1 -i 95 -a 1 -x {1.0 3.2 -1 ------- null}
- -t 0.85752 -s 4 -d 0 -p tcp -e 1040 -c 4 -i 57 -a 4 -x {4.0 0.1 37 ------- null}
h -t 0.85752 -s 4 -d 0 -p tcp -e 1040 -c 4 -i 57 -a 4 -x {4.0 0.1 -1 ------- null}
r -t 0.862 -s 2 -d 3 -p cbr -e 1000 -c 1 -i 80 -a 1 -x {1.0 3.2 2 ------- null}
r -t 0.86288 -s 0 -d 4 -p ack -e 40 -c 4 -i 91 -a 4 -x {0.1 4.0 33 ------- null}
+ -t 0.86288 -s 4 -d 0 -p tcp -e 1040 -c 4 -i 96 -a 4 -x {4.0 0.1 53 ------- null}
r -t 0.863 -s 1 -d 2 -p cbr -e 1000 -c 1 -i 89 -a 1 -x {1.0 3.2 5 ------- null}
+ -t 0.863 -s 2 -d 3 -p cbr -e 1000 -c 1 -i 89 -a 1 -x {1.0 3.2 5 ------- null}
- -t 0.863 -s 2 -d 3 -p cbr -e 1000 -c 1 -i 89 -a 1 -x {1.0 3.2 5 ------- null}
h -t 0.863 -s 2 -d 3 -p cbr -e 1000 -c 1 -i 89 -a 1 -x {1.0 3.2 -1 ------- null}
+ -t 0.864 -s 1 -d 2 -p cbr -e 1000 -c 1 -i 97 -a 1 -x {1.0 3.2 8 ------- null}
- -t 0.864 -s 1 -d 2 -p cbr -e 1000 -c 1 -i 97 -a 1 -x {1.0 3.2 8 ------- null}
h -t 0.864 -s 1 -d 2 -p cbr -e 1000 -c 1 -i 97 -a 1 -x {1.0 3.2 -1 ------- null}