+ 0.5 0 1 tcp 40 ------- 1 0.0 2.0 0 0
- 0.5 0 1 tcp 40 ------- 1 0.0 2.0 0 0
+ 0.5 3 4 tcp 40 ------- 1 3.0 2.1 0 1
- 0.5 3 4 tcp 40 ------- 1 3.0 2.1 0 1
r 0.55016 0 1 tcp 40 ------- 1 0.0 2.0 0 0
+ 0.55016 1 2 tcp 40 ------- 1 0.0 2.0 0 0
- 0.55016 1 2 tcp 40 ------- 1 0.0 2.0 0 0
r 0.5532 3 4 tcp 40 ------- 1 3.0 2.1 0 1
+ 0.5532 4 2 tcp 40 ------- 1 3.0 2.1 0 1
- 0.5532 4 2 tcp 40 ------- 1 3.0 2.1 0 1
r 0.65336 1 2 tcp 40 ------- 1 0.0 2.0 0 0
+ 0.65336 2 1 ack 40 ------- 1 2.0 0.0 0 2
- 0.65336 2 1 ack 40 ------- 1 2.0 0.0 0 2
r 0.6564 4 2 tcp 40 ------- 1 3.0 2.1 0 1
+ 0.6564 2 4 ack 40 ------- 1 2.1 3.0 0 3
- 0.6564 2 4 ack 40 ------- 1 2.1 3.0 0 3
r 0.75656 2 1 ack 40 ------- 1 2.0 0.0 0 2
+ 0.75656 1 0 ack 40 ------- 1 2.0 0.0 0 2
- 0.75656 1 0 ack 40 ------- 1 2.0 0.0 0 2
r 0.7596 2 4 ack 40 ------- 1 2.1 3.0 0 3
+ 0.7596 4 3 ack 40 ------- 1 2.1 3.0 0 3
- 0.7596 4 3 ack 40 ------- 1 2.1 3.0 0 3
r 0.80672 1 0 ack 40 ------- 1 2.0 0.0 0 2
+ 0.80672 0 1 tcp 1040 ------- 1 0.0 2.0 1 4
- 0.80672 0 1 tcp 1040 ------- 1 0.0 2.0 1 4
+ 0.80672 0 1 tcp 1040 ------- 1 0.0 2.0 2 5
- 0.81088 0 1 tcp 1040 ------- 1 0.0 2.0 2 5
r 0.8128 4 3 ack 40 ------- 1 2.1 3.0 0 3
+ 0.8128 3 4 tcp 1040 ------- 1 3.0 2.1 1 6
- 0.8128 3 4 tcp 1040 ------- 1 3.0 2.1 1 6
+ 0.8128 3 4 tcp 1040 ------- 1 3.0 2.1 2 7
r 0.86088 0 1 tcp 1040 ------- 1 0.0 2.0 1 4
+ 0.86088 1 2 tcp 1040 ------- 1 0.0 2.0 1 4
- 0.86088 1 2 tcp 1040 ------- 1 0.0 2.0 1 4
r 0.86504 0 1 tcp 1040 ------- 1 0.0 2.0 2 5
+ 0.86504 1 2 tcp 1040 ------- 1 0.0 2.0 2 5
- 0.896 3 4 tcp 1040 ------- 1 3.0 2.1 2 7
- 0.94408 1 2 tcp 1040 ------- 1 0.0 2.0 2 5
r 0.946 3 4 tcp 1040 ------- 1 3.0 2.1 1 6
+ 0.946 4 2 tcp 1040 ------- 1 3.0 2.1 1 6
- 0.946 4 2 tcp 1040 ------- 1 3.0 2.1 1 6
r 1.0292 3 4 tcp 1040 ------- 1 3.0 2.1 2 7
+ 1.0292 4 2 tcp 1040 ------- 1 3.0 2.1 2 7
- 1.0292 4 2 tcp 1040 ------- 1 3.0 2.1 2 7
r 1.04408 1 2 tcp 1040 ------- 1 0.0 2.0 1 4
+ 1.04408 2 1 ack 40 ------- 1 2.0 0.0 1 8
- 1.04408 2 1 ack 40 ------- 1 2.0 0.0 1 8
r 1.12728 1 2 tcp 1040 ------- 1 0.0 2.0 2 5
+ 1.12728 2 1 ack 40 ------- 1 2.0 0.0 2 9
- 1.12728 2 1 ack 40 ------- 1 2.0 0.0 2 9
r 1.1292 4 2 tcp 1040 ------- 1 3.0 2.1 1 6
+ 1.1292 2 4 ack 40 ------- 1 2.1 3.0 1 10
- 1.1292 2 4 ack 40 ------- 1 2.1 3.0 1 10
r 1.14728 2 1 ack 40 ------- 1 2.0 0.0 1 8
+ 1.14728 1 0 ack 40 ------- 1 2.0 0.0 1 8
- 1.14728 1 0 ack 40 ------- 1 2.0 0.0 1 8
r 1.19744 1 0 ack 40 ------- 1 2.0 0.0 1 8
+ 1.19744 0 1 tcp 1040 ------- 1 0.0 2.0 3 11
- 1.19744 0 1 tcp 1040 ------- 1 0.0 2.0 3 11
+ 1.19744 0 1 tcp 1040 ------- 1 0.0 2.0 4 12
- 1.2016 0 1 tcp 1040 ------- 1 0.0 2.0 4 12
r 1.2124 4 2 tcp 1040 ------- 1 3.0 2.1 2 7
+ 1.2124 2 4 ack 40 ------- 1 2.1 3.0 2 13
- 1.2124 2 4 ack 40 ------- 1 2.1 3.0 2 13
r 1.23048 2 1 ack 40 ------- 1 2.0 0.0 2 9
+ 1.23048 1 0 ack 40 ------- 1 2.0 0.0 2 9
- 1.23048 1 0 ack 40 ------- 1 2.0 0.0 2 9
r 1.2324 2 4 ack 40 ------- 1 2.1 3.0 1 10
+ 1.2324 4 3 ack 40 ------- 1 2.1 3.0 1 10
- 1.2324 4 3 ack 40 ------- 1 2.1 3.0 1 10
r 1.2516 0 1 tcp 1040 ------- 1 0.0 2.0 3 11
+ 1.2516 1 2 tcp 1040 ------- 1 0.0 2.0 3 11
- 1.2516 1 2 tcp 1040 ------- 1 0.0 2.0 3 11
r 1.25576 0 1 tcp 1040 ------- 1 0.0 2.0 4 12
+ 1.25576 1 2 tcp 1040 ------- 1 0.0 2.0 4 12
r 1.28064 1 0 ack 40 ------- 1 2.0 0.0 2 9
+ 1.28064 0 1 tcp 1040 ------- 1 0.0 2.0 5 14
- 1.28064 0 1 tcp 1040 ------- 1 0.0 2.0 5 14
+ 1.28064 0 1 tcp 1040 ------- 1 0.0 2.0 6 15
- 1.2848 0 1 tcp 1040 ------- 1 0.0 2.0 6 15
r 1.2856 4 3 ack 40 ------- 1 2.1 3.0 1 10
+ 1.2856 3 4 tcp 1040 ------- 1 3.0 2.1 3 16
- 1.2856 3 4 tcp 1040 ------- 1 3.0 2.1 3 16
+ 1.2856 3 4 tcp 1040 ------- 1 3.0 2.1 4 17
r 1.3156 2 4 ack 40 ------- 1 2.1 3.0 2 13
+ 1.3156 4 3 ack 40 ------- 1 2.1 3.0 2 13
- 1.3156 4 3 ack 40 ------- 1 2.1 3.0 2 13
- 1.3348 1 2 tcp 1040 ------- 1 0.0 2.0 4 12
r 1.3348 0 1 tcp 1040 ------- 1 0.0 2.0 5 14
+ 1.3348 1 2 tcp 1040 ------- 1 0.0 2.0 5 14
r 1.33896 0 1 tcp 1040 ------- 1 0.0 2.0 6 15
+ 1.33896 1 2 tcp 1040 ------- 1 0.0 2.0 6 15
- 1.3688 3 4 tcp 1040 ------- 1 3.0 2.1 4 17
r 1.3688 4 3 ack 40 ------- 1 2.1 3.0 2 13
+ 1.3688 3 4 tcp 1040 ------- 1 3.0 2.1 5 18
+ 1.3688 3 4 tcp 1040 ------- 1 3.0 2.1 6 19
- 1.418 1 2 tcp 1040 ------- 1 0.0 2.0 5 14
r 1.4188 3 4 tcp 1040 ------- 1 3.0 2.1 3 16
+ 1.4188 4 2 tcp 1040 ------- 1 3.0 2.1 3 16
- 1.4188 4 2 tcp 1040 ------- 1 3.0 2.1 3 16
r 1.4348 1 2 tcp 1040 ------- 1 0.0 2.0 3 11
+ 1.4348 2 1 ack 40 ------- 1 2.0 0.0 3 20
- 1.4348 2 1 ack 40 ------- 1 2.0 0.0 3 20
- 1.452 3 4 tcp 1040 ------- 1 3.0 2.1 5 18
- 1.5012 1 2 tcp 1040 ------- 1 0.0 2.0 6 15
r 1.502 3 4 tcp 1040 ------- 1 3.0 2.1 4 17
+ 1.502 4 2 tcp 1040 ------- 1 3.0 2.1 4 17
- 1.502 4 2 tcp 1040 ------- 1 3.0 2.1 4 17
r 1.518 1 2 tcp 1040 ------- 1 0.0 2.0 4 12
+ 1.518 2 1 ack 40 ------- 1 2.0 0.0 4 21
- 1.518 2 1 ack 40 ------- 1 2.0 0.0 4 21
- 1.5352 3 4 tcp 1040 ------- 1 3.0 2.1 6 19
r 1.538 2 1 ack 40 ------- 1 2.0 0.0 3 20
+ 1.538 1 0 ack 40 ------- 1 2.0 0.0 3 20
- 1.538 1 0 ack 40 ------- 1 2.0 0.0 3 20
r 1.5852 3 4 tcp 1040 ------- 1 3.0 2.1 5 18
+ 1.5852 4 2 tcp 1040 ------- 1 3.0 2.1 5 18
- 1.5852 4 2 tcp 1040 ------- 1 3.0 2.1 5 18
r 1.58816 1 0 ack 40 ------- 1 2.0 0.0 3 20
+ 1.58816 0 1 tcp 1040 ------- 1 0.0 2.0 7 22
- 1.58816 0 1 tcp 1040 ------- 1 0.0 2.0 7 22
+ 1.58816 0 1 tcp 1040 ------- 1 0.0 2.0 8 23
- 1.59232 0 1 tcp 1040 ------- 1 0.0 2.0 8 23
d 1.6 2 1 ack 40 ------- 1 2.0 0.0 4 21
v 1.6000000000000001 link-down 2 1
d 1.6 1 2 tcp 1040 ------- 1 0.0 2.0 5 14
d 1.6 1 2 tcp 1040 ------- 1 0.0 2.0 6 15
v 1.6000000000000001 link-down 1 2
r 1.602 4 2 tcp 1040 ------- 1 3.0 2.1 3 16
+ 1.602 2 4 ack 40 ------- 1 2.1 3.0 3 24
- 1.602 2 4 ack 40 ------- 1 2.1 3.0 3 24
r 1.64232 0 1 tcp 1040 ------- 1 0.0 2.0 7 22
r 1.64648 0 1 tcp 1040 ------- 1 0.0 2.0 8 23
r 1.6684 3 4 tcp 1040 ------- 1 3.0 2.1 6 19
+ 1.6684 4 2 tcp 1040 ------- 1 3.0 2.1 6 19
- 1.6684 4 2 tcp 1040 ------- 1 3.0 2.1 6 19
r 1.6852 4 2 tcp 1040 ------- 1 3.0 2.1 4 17
+ 1.6852 2 4 ack 40 ------- 1 2.1 3.0 4 25
- 1.6852 2 4 ack 40 ------- 1 2.1 3.0 4 25
r 1.7052 2 4 ack 40 ------- 1 2.1 3.0 3 24
+ 1.7052 4 3 ack 40 ------- 1 2.1 3.0 3 24
- 1.7052 4 3 ack 40 ------- 1 2.1 3.0 3 24
r 1.7584 4 3 ack 40 ------- 1 2.1 3.0 3 24
+ 1.7584 3 4 tcp 1040 ------- 1 3.0 2.1 7 26
- 1.7584 3 4 tcp 1040 ------- 1 3.0 2.1 7 26
+ 1.7584 3 4 tcp 1040 ------- 1 3.0 2.1 8 27
r 1.7684 4 2 tcp 1040 ------- 1 3.0 2.1 5 18
+ 1.7684 2 4 ack 40 ------- 1 2.1 3.0 5 28
- 1.7684 2 4 ack 40 ------- 1 2.1 3.0 5 28
r 1.7884 2 4 ack 40 ------- 1 2.1 3.0 4 25
+ 1.7884 4 3 ack 40 ------- 1 2.1 3.0 4 25
- 1.7884 4 3 ack 40 ------- 1 2.1 3.0 4 25
- 1.8416 3 4 tcp 1040 ------- 1 3.0 2.1 8 27
r 1.8416 4 3 ack 40 ------- 1 2.1 3.0 4 25
+ 1.8416 3 4 tcp 1040 ------- 1 3.0 2.1 9 29
+ 1.8416 3 4 tcp 1040 ------- 1 3.0 2.1 10 30
r 1.8516 4 2 tcp 1040 ------- 1 3.0 2.1 6 19
+ 1.8516 2 4 ack 40 ------- 1 2.1 3.0 6 31
- 1.8516 2 4 ack 40 ------- 1 2.1 3.0 6 31
r 1.8716 2 4 ack 40 ------- 1 2.1 3.0 5 28
+ 1.8716 4 3 ack 40 ------- 1 2.1 3.0 5 28
- 1.8716 4 3 ack 40 ------- 1 2.1 3.0 5 28
r 1.8916 3 4 tcp 1040 ------- 1 3.0 2.1 7 26
+ 1.8916 4 2 tcp 1040 ------- 1 3.0 2.1 7 26
- 1.8916 4 2 tcp 1040 ------- 1 3.0 2.1 7 26
- 1.9248 3 4 tcp 1040 ------- 1 3.0 2.1 9 29
r 1.9248 4 3 ack 40 ------- 1 2.1 3.0 5 28
+ 1.9248 3 4 tcp 1040 ------- 1 3.0 2.1 11 32
+ 1.9248 3 4 tcp 1040 ------- 1 3.0 2.1 12 33
r 1.9548 2 4 ack 40 ------- 1 2.1 3.0 6 31
+ 1.9548 4 3 ack 40 ------- 1 2.1 3.0 6 31
- 1.9548 4 3 ack 40 ------- 1 2.1 3.0 6 31
r 1.9748 3 4 tcp 1040 ------- 1 3.0 2.1 8 27
+ 1.9748 4 2 tcp 1040 ------- 1 3.0 2.1 8 27
- 1.9748 4 2 tcp 1040 ------- 1 3.0 2.1 8 27
- 2.008 3 4 tcp 1040 ------- 1 3.0 2.1 10 30
r 2.008 4 3 ack 40 ------- 1 2.1 3.0 6 31
+ 2.008 3 4 tcp 1040 ------- 1 3.0 2.1 13 34
+ 2.008 3 4 tcp 1040 ------- 1 3.0 2.1 14 35
r 2.058 3 4 tcp 1040 ------- 1 3.0 2.1 9 29
+ 2.058 4 2 tcp 1040 ------- 1 3.0 2.1 9 29
- 2.058 4 2 tcp 1040 ------- 1 3.0 2.1 9 29
r 2.0748 4 2 tcp 1040 ------- 1 3.0 2.1 7 26
+ 2.0748 2 4 ack 40 ------- 1 2.1 3.0 7 36
- 2.0748 2 4 ack 40 ------- 1 2.1 3.0 7 36
- 2.0912 3 4 tcp 1040 ------- 1 3.0 2.1 11 32
r 2.1412 3 4 tcp 1040 ------- 1 3.0 2.1 10 30
+ 2.1412 4 2 tcp 1040 ------- 1 3.0 2.1 10 30
- 2.1412 4 2 tcp 1040 ------- 1 3.0 2.1 10 30
r 2.158 4 2 tcp 1040 ------- 1 3.0 2.1 8 27
+ 2.158 2 4 ack 40 ------- 1 2.1 3.0 8 37
- 2.158 2 4 ack 40 ------- 1 2.1 3.0 8 37
- 2.1744 3 4 tcp 1040 ------- 1 3.0 2.1 12 33
r 2.178 2 4 ack 40 ------- 1 2.1 3.0 7 36
+ 2.178 4 3 ack 40 ------- 1 2.1 3.0 7 36
- 2.178 4 3 ack 40 ------- 1 2.1 3.0 7 36
r 2.2244 3 4 tcp 1040 ------- 1 3.0 2.1 11 32
+ 2.2244 4 2 tcp 1040 ------- 1 3.0 2.1 11 32
- 2.2244 4 2 tcp 1040 ------- 1 3.0 2.1 11 32
r 2.2312 4 3 ack 40 ------- 1 2.1 3.0 7 36
+ 2.2312 3 4 tcp 1040 ------- 1 3.0 2.1 15 38
+ 2.2312 3 4 tcp 1040 ------- 1 3.0 2.1 16 39
r 2.2412 4 2 tcp 1040 ------- 1 3.0 2.1 9 29
+ 2.2412 2 4 ack 40 ------- 1 2.1 3.0 9 40
- 2.2412 2 4 ack 40 ------- 1 2.1 3.0 9 40
- 2.2576 3 4 tcp 1040 ------- 1 3.0 2.1 13 34
r 2.2612 2 4 ack 40 ------- 1 2.1 3.0 8 37
+ 2.2612 4 3 ack 40 ------- 1 2.1 3.0 8 37
- 2.2612 4 3 ack 40 ------- 1 2.1 3.0 8 37
r 2.3076 3 4 tcp 1040 ------- 1 3.0 2.1 12 33
+ 2.3076 4 2 tcp 1040 ------- 1 3.0 2.1 12 33
- 2.3076 4 2 tcp 1040 ------- 1 3.0 2.1 12 33
r 2.3144 4 3 ack 40 ------- 1 2.1 3.0 8 37
+ 2.3144 3 4 tcp 1040 ------- 1 3.0 2.1 17 41
+ 2.3144 3 4 tcp 1040 ------- 1 3.0 2.1 18 42
r 2.3244 4 2 tcp 1040 ------- 1 3.0 2.1 10 30
+ 2.3244 2 4 ack 40 ------- 1 2.1 3.0 10 43
- 2.3244 2 4 ack 40 ------- 1 2.1 3.0 10 43
- 2.3408 3 4 tcp 1040 ------- 1 3.0 2.1 14 35
r 2.3444 2 4 ack 40 ------- 1 2.1 3.0 9 40
+ 2.3444 4 3 ack 40 ------- 1 2.1 3.0 9 40
- 2.3444 4 3 ack 40 ------- 1 2.1 3.0 9 40
r 2.3908 3 4 tcp 1040 ------- 1 3.0 2.1 13 34
+ 2.3908 4 2 tcp 1040 ------- 1 3.0 2.1 13 34
- 2.3908 4 2 tcp 1040 ------- 1 3.0 2.1 13 34
r 2.3976 4 3 ack 40 ------- 1 2.1 3.0 9 40
+ 2.3976 3 4 tcp 1040 ------- 1 3.0 2.1 19 44
+ 2.3976 3 4 tcp 1040 ------- 1 3.0 2.1 20 45
+ 2.39816 0 1 tcp 1040 ---A--- 1 0.0 2.0 4 46
- 2.39816 0 1 tcp 1040 ---A--- 1 0.0 2.0 4 46
r 2.4076 4 2 tcp 1040 ------- 1 3.0 2.1 11 32
+ 2.4076 2 4 ack 40 ------- 1 2.1 3.0 11 47
- 2.4076 2 4 ack 40 ------- 1 2.1 3.0 11 47
- 2.424 3 4 tcp 1040 ------- 1 3.0 2.1 15 38
r 2.4276 2 4 ack 40 ------- 1 2.1 3.0 10 43
+ 2.4276 4 3 ack 40 ------- 1 2.1 3.0 10 43
- 2.4276 4 3 ack 40 ------- 1 2.1 3.0 10 43
r 2.45232 0 1 tcp 1040 ---A--- 1 0.0 2.0 4 46
r 2.474 3 4 tcp 1040 ------- 1 3.0 2.1 14 35
+ 2.474 4 2 tcp 1040 ------- 1 3.0 2.1 14 35
- 2.474 4 2 tcp 1040 ------- 1 3.0 2.1 14 35
r 2.4808 4 3 ack 40 ------- 1 2.1 3.0 10 43
+ 2.4808 3 4 tcp 1040 ------- 1 3.0 2.1 21 48
+ 2.4808 3 4 tcp 1040 ------- 1 3.0 2.1 22 49
r 2.4908 4 2 tcp 1040 ------- 1 3.0 2.1 12 33
+ 2.4908 2 4 ack 40 ------- 1 2.1 3.0 12 50
- 2.4908 2 4 ack 40 ------- 1 2.1 3.0 12 50
- 2.5072 3 4 tcp 1040 ------- 1 3.0 2.1 16 39
r 2.5108 2 4 ack 40 ------- 1 2.1 3.0 11 47
+ 2.5108 4 3 ack 40 ------- 1 2.1 3.0 11 47
- 2.5108 4 3 ack 40 ------- 1 2.1 3.0 11 47
r 2.5572 3 4 tcp 1040 ------- 1 3.0 2.1 15 38
+ 2.5572 4 2 tcp 1040 ------- 1 3.0 2.1 15 38
- 2.5572 4 2 tcp 1040 ------- 1 3.0 2.1 15 38
r 2.564 4 3 ack 40 ------- 1 2.1 3.0 11 47
+ 2.564 3 4 tcp 1040 ------- 1 3.0 2.1 23 51
+ 2.564 3 4 tcp 1040 ------- 1 3.0 2.1 24 52
r 2.574 4 2 tcp 1040 ------- 1 3.0 2.1 13 34
+ 2.574 2 4 ack 40 ------- 1 2.1 3.0 13 53
- 2.574 2 4 ack 40 ------- 1 2.1 3.0 13 53
- 2.5904 3 4 tcp 1040 ------- 1 3.0 2.1 17 41
r 2.594 2 4 ack 40 ------- 1 2.1 3.0 12 50
+ 2.594 4 3 ack 40 ------- 1 2.1 3.0 12 50
- 2.594 4 3 ack 40 ------- 1 2.1 3.0 12 50
r 2.6404 3 4 tcp 1040 ------- 1 3.0 2.1 16 39
+ 2.6404 4 2 tcp 1040 ------- 1 3.0 2.1 16 39
- 2.6404 4 2 tcp 1040 ------- 1 3.0 2.1 16 39
r 2.6472 4 3 ack 40 ------- 1 2.1 3.0 12 50
+ 2.6472 3 4 tcp 1040 ------- 1 3.0 2.1 25 54
+ 2.6472 3 4 tcp 1040 ------- 1 3.0 2.1 26 55
r 2.6572 4 2 tcp 1040 ------- 1 3.0 2.1 14 35
+ 2.6572 2 4 ack 40 ------- 1 2.1 3.0 14 56
- 2.6572 2 4 ack 40 ------- 1 2.1 3.0 14 56
- 2.6736 3 4 tcp 1040 ------- 1 3.0 2.1 18 42
r 2.6772 2 4 ack 40 ------- 1 2.1 3.0 13 53
+ 2.6772 4 3 ack 40 ------- 1 2.1 3.0 13 53
- 2.6772 4 3 ack 40 ------- 1 2.1 3.0 13 53
r 2.7236 3 4 tcp 1040 ------- 1 3.0 2.1 17 41
+ 2.7236 4 2 tcp 1040 ------- 1 3.0 2.1 17 41
- 2.7236 4 2 tcp 1040 ------- 1 3.0 2.1 17 41
r 2.7304 4 3 ack 40 ------- 1 2.1 3.0 13 53
+ 2.7304 3 4 tcp 1040 ------- 1 3.0 2.1 27 57
+ 2.7304 3 4 tcp 1040 ------- 1 3.0 2.1 28 58
r 2.7404 4 2 tcp 1040 ------- 1 3.0 2.1 15 38
+ 2.7404 2 4 ack 40 ------- 1 2.1 3.0 15 59
- 2.7404 2 4 ack 40 ------- 1 2.1 3.0 15 59
- 2.7568 3 4 tcp 1040 ------- 1 3.0 2.1 19 44
r 2.7604 2 4 ack 40 ------- 1 2.1 3.0 14 56
+ 2.7604 4 3 ack 40 ------- 1 2.1 3.0 14 56
- 2.7604 4 3 ack 40 ------- 1 2.1 3.0 14 56
r 2.8068 3 4 tcp 1040 ------- 1 3.0 2.1 18 42
+ 2.8068 4 2 tcp 1040 ------- 1 3.0 2.1 18 42
- 2.8068 4 2 tcp 1040 ------- 1 3.0 2.1 18 42
r 2.8136 4 3 ack 40 ------- 1 2.1 3.0 14 56
+ 2.8136 3 4 tcp 1040 ------- 1 3.0 2.1 29 60
+ 2.8136 3 4 tcp 1040 ------- 1 3.0 2.1 30 61
r 2.8236 4 2 tcp 1040 ------- 1 3.0 2.1 16 39
+ 2.8236 2 4 ack 40 ------- 1 2.1 3.0 16 62
- 2.8236 2 4 ack 40 ------- 1 2.1 3.0 16 62
- 2.84 3 4 tcp 1040 ------- 1 3.0 2.1 20 45
r 2.8436 2 4 ack 40 ------- 1 2.1 3.0 15 59
+ 2.8436 4 3 ack 40 ------- 1 2.1 3.0 15 59
- 2.8436 4 3 ack 40 ------- 1 2.1 3.0 15 59
r 2.89 3 4 tcp 1040 ------- 1 3.0 2.1 19 44
+ 2.89 4 2 tcp 1040 ------- 1 3.0 2.1 19 44
- 2.89 4 2 tcp 1040 ------- 1 3.0 2.1 19 44
r 2.8968 4 3 ack 40 ------- 1 2.1 3.0 15 59
+ 2.8968 3 4 tcp 1040 ------- 1 3.0 2.1 31 63
+ 2.8968 3 4 tcp 1040 ------- 1 3.0 2.1 32 64
r 2.9068 4 2 tcp 1040 ------- 1 3.0 2.1 17 41
+ 2.9068 2 4 ack 40 ------- 1 2.1 3.0 17 65
- 2.9068 2 4 ack 40 ------- 1 2.1 3.0 17 65
- 2.9232 3 4 tcp 1040 ------- 1 3.0 2.1 21 48
r 2.9268 2 4 ack 40 ------- 1 2.1 3.0 16 62
+ 2.9268 4 3 ack 40 ------- 1 2.1 3.0 16 62
- 2.9268 4 3 ack 40 ------- 1 2.1 3.0 16 62
r 2.9732 3 4 tcp 1040 ------- 1 3.0 2.1 20 45
+ 2.9732 4 2 tcp 1040 ------- 1 3.0 2.1 20 45
- 2.9732 4 2 tcp 1040 ------- 1 3.0 2.1 20 45
r 2.98 4 3 ack 40 ------- 1 2.1 3.0 16 62
+ 2.98 3 4 tcp 1040 ------- 1 3.0 2.1 33 66
+ 2.98 3 4 tcp 1040 ------- 1 3.0 2.1 34 67
r 2.99 4 2 tcp 1040 ------- 1 3.0 2.1 18 42
+ 2.99 2 4 ack 40 ------- 1 2.1 3.0 18 68
- 2.99 2 4 ack 40 ------- 1 2.1 3.0 18 68
- 3.0064 3 4 tcp 1040 ------- 1 3.0 2.1 22 49
r 3.01 2 4 ack 40 ------- 1 2.1 3.0 17 65
+ 3.01 4 3 ack 40 ------- 1 2.1 3.0 17 65
- 3.01 4 3 ack 40 ------- 1 2.1 3.0 17 65
r 3.0564 3 4 tcp 1040 ------- 1 3.0 2.1 21 48
+ 3.0564 4 2 tcp 1040 ------- 1 3.0 2.1 21 48
- 3.0564 4 2 tcp 1040 ------- 1 3.0 2.1 21 48
r 3.0632 4 3 ack 40 ------- 1 2.1 3.0 17 65
r 3.0732 4 2 tcp 1040 ------- 1 3.0 2.1 19 44
+ 3.0732 2 4 ack 40 ------- 1 2.1 3.0 19 69
- 3.0732 2 4 ack 40 ------- 1 2.1 3.0 19 69
- 3.0896 3 4 tcp 1040 ------- 1 3.0 2.1 23 51
r 3.0932 2 4 ack 40 ------- 1 2.1 3.0 18 68
+ 3.0932 4 3 ack 40 ------- 1 2.1 3.0 18 68
- 3.0932 4 3 ack 40 ------- 1 2.1 3.0 18 68
r 3.1396 3 4 tcp 1040 ------- 1 3.0 2.1 22 49
+ 3.1396 4 2 tcp 1040 ------- 1 3.0 2.1 22 49
- 3.1396 4 2 tcp 1040 ------- 1 3.0 2.1 22 49
r 3.1464 4 3 ack 40 ------- 1 2.1 3.0 18 68
r 3.1564 4 2 tcp 1040 ------- 1 3.0 2.1 20 45
+ 3.1564 2 4 ack 40 ------- 1 2.1 3.0 20 70
- 3.1564 2 4 ack 40 ------- 1 2.1 3.0 20 70
- 3.1728 3 4 tcp 1040 ------- 1 3.0 2.1 24 52
r 3.1764 2 4 ack 40 ------- 1 2.1 3.0 19 69
+ 3.1764 4 3 ack 40 ------- 1 2.1 3.0 19 69
- 3.1764 4 3 ack 40 ------- 1 2.1 3.0 19 69
r 3.2228 3 4 tcp 1040 ------- 1 3.0 2.1 23 51
+ 3.2228 4 2 tcp 1040 ------- 1 3.0 2.1 23 51
- 3.2228 4 2 tcp 1040 ------- 1 3.0 2.1 23 51
r 3.2296 4 3 ack 40 ------- 1 2.1 3.0 19 69
r 3.2396 4 2 tcp 1040 ------- 1 3.0 2.1 21 48
+ 3.2396 2 4 ack 40 ------- 1 2.1 3.0 21 71
- 3.2396 2 4 ack 40 ------- 1 2.1 3.0 21 71
- 3.256 3 4 tcp 1040 ------- 1 3.0 2.1 25 54
r 3.2596 2 4 ack 40 ------- 1 2.1 3.0 20 70
+ 3.2596 4 3 ack 40 ------- 1 2.1 3.0 20 70
- 3.2596 4 3 ack 40 ------- 1 2.1 3.0 20 70
r 3.306 3 4 tcp 1040 ------- 1 3.0 2.1 24 52
+ 3.306 4 2 tcp 1040 ------- 1 3.0 2.1 24 52
- 3.306 4 2 tcp 1040 ------- 1 3.0 2.1 24 52
r 3.3128 4 3 ack 40 ------- 1 2.1 3.0 20 70
r 3.3228 4 2 tcp 1040 ------- 1 3.0 2.1 22 49
+ 3.3228 2 4 ack 40 ------- 1 2.1 3.0 22 72
- 3.3228 2 4 ack 40 ------- 1 2.1 3.0 22 72
- 3.3392 3 4 tcp 1040 ------- 1 3.0 2.1 26 55
r 3.3428 2 4 ack 40 ------- 1 2.1 3.0 21 71
+ 3.3428 4 3 ack 40 ------- 1 2.1 3.0 21 71
- 3.3428 4 3 ack 40 ------- 1 2.1 3.0 21 71
r 3.3892 3 4 tcp 1040 ------- 1 3.0 2.1 25 54
+ 3.3892 4 2 tcp 1040 ------- 1 3.0 2.1 25 54
- 3.3892 4 2 tcp 1040 ------- 1 3.0 2.1 25 54
r 3.396 4 3 ack 40 ------- 1 2.1 3.0 21 71
r 3.406 4 2 tcp 1040 ------- 1 3.0 2.1 23 51
+ 3.406 2 4 ack 40 ------- 1 2.1 3.0 23 73
- 3.406 2 4 ack 40 ------- 1 2.1 3.0 23 73
- 3.4224 3 4 tcp 1040 ------- 1 3.0 2.1 27 57
r 3.426 2 4 ack 40 ------- 1 2.1 3.0 22 72
+ 3.426 4 3 ack 40 ------- 1 2.1 3.0 22 72
- 3.426 4 3 ack 40 ------- 1 2.1 3.0 22 72
r 3.4724 3 4 tcp 1040 ------- 1 3.0 2.1 26 55
+ 3.4724 4 2 tcp 1040 ------- 1 3.0 2.1 26 55
- 3.4724 4 2 tcp 1040 ------- 1 3.0 2.1 26 55
r 3.4792 4 3 ack 40 ------- 1 2.1 3.0 22 72
r 3.4892 4 2 tcp 1040 ------- 1 3.0 2.1 24 52
+ 3.4892 2 4 ack 40 ------- 1 2.1 3.0 24 74
- 3.4892 2 4 ack 40 ------- 1 2.1 3.0 24 74
- 3.5056 3 4 tcp 1040 ------- 1 3.0 2.1 28 58
r 3.5092 2 4 ack 40 ------- 1 2.1 3.0 23 73
+ 3.5092 4 3 ack 40 ------- 1 2.1 3.0 23 73
- 3.5092 4 3 ack 40 ------- 1 2.1 3.0 23 73
r 3.5556 3 4 tcp 1040 ------- 1 3.0 2.1 27 57
+ 3.5556 4 2 tcp 1040 ------- 1 3.0 2.1 27 57
- 3.5556 4 2 tcp 1040 ------- 1 3.0 2.1 27 57
r 3.5624 4 3 ack 40 ------- 1 2.1 3.0 23 73
r 3.5724 4 2 tcp 1040 ------- 1 3.0 2.1 25 54
+ 3.5724 2 4 ack 40 ------- 1 2.1 3.0 25 75
- 3.5724 2 4 ack 40 ------- 1 2.1 3.0 25 75
- 3.5888 3 4 tcp 1040 ------- 1 3.0 2.1 29 60
r 3.5924 2 4 ack 40 ------- 1 2.1 3.0 24 74
+ 3.5924 4 3 ack 40 ------- 1 2.1 3.0 24 74
- 3.5924 4 3 ack 40 ------- 1 2.1 3.0 24 74
r 3.6388 3 4 tcp 1040 ------- 1 3.0 2.1 28 58
+ 3.6388 4 2 tcp 1040 ------- 1 3.0 2.1 28 58
- 3.6388 4 2 tcp 1040 ------- 1 3.0 2.1 28 58
r 3.6456 4 3 ack 40 ------- 1 2.1 3.0 24 74
r 3.6556 4 2 tcp 1040 ------- 1 3.0 2.1 26 55
+ 3.6556 2 4 ack 40 ------- 1 2.1 3.0 26 76
- 3.6556 2 4 ack 40 ------- 1 2.1 3.0 26 76
- 3.672 3 4 tcp 1040 ------- 1 3.0 2.1 30 61
r 3.6756 2 4 ack 40 ------- 1 2.1 3.0 25 75
+ 3.6756 4 3 ack 40 ------- 1 2.1 3.0 25 75
- 3.6756 4 3 ack 40 ------- 1 2.1 3.0 25 75
r 3.722 3 4 tcp 1040 ------- 1 3.0 2.1 29 60
+ 3.722 4 2 tcp 1040 ------- 1 3.0 2.1 29 60
- 3.722 4 2 tcp 1040 ------- 1 3.0 2.1 29 60
r 3.7288 4 3 ack 40 ------- 1 2.1 3.0 25 75
r 3.7388 4 2 tcp 1040 ------- 1 3.0 2.1 27 57
+ 3.7388 2 4 ack 40 ------- 1 2.1 3.0 27 77
- 3.7388 2 4 ack 40 ------- 1 2.1 3.0 27 77
- 3.7552 3 4 tcp 1040 ------- 1 3.0 2.1 31 63
r 3.7588 2 4 ack 40 ------- 1 2.1 3.0 26 76
+ 3.7588 4 3 ack 40 ------- 1 2.1 3.0 26 76
- 3.7588 4 3 ack 40 ------- 1 2.1 3.0 26 76
r 3.8052 3 4 tcp 1040 ------- 1 3.0 2.1 30 61
+ 3.8052 4 2 tcp 1040 ------- 1 3.0 2.1 30 61
- 3.8052 4 2 tcp 1040 ------- 1 3.0 2.1 30 61
r 3.812 4 3 ack 40 ------- 1 2.1 3.0 26 76
r 3.822 4 2 tcp 1040 ------- 1 3.0 2.1 28 58
+ 3.822 2 4 ack 40 ------- 1 2.1 3.0 28 78
- 3.822 2 4 ack 40 ------- 1 2.1 3.0 28 78
- 3.8384 3 4 tcp 1040 ------- 1 3.0 2.1 32 64
r 3.842 2 4 ack 40 ------- 1 2.1 3.0 27 77
+ 3.842 4 3 ack 40 ------- 1 2.1 3.0 27 77
- 3.842 4 3 ack 40 ------- 1 2.1 3.0 27 77
r 3.8884 3 4 tcp 1040 ------- 1 3.0 2.1 31 63
+ 3.8884 4 2 tcp 1040 ------- 1 3.0 2.1 31 63
- 3.8884 4 2 tcp 1040 ------- 1 3.0 2.1 31 63
r 3.8952 4 3 ack 40 ------- 1 2.1 3.0 27 77
r 3.9052 4 2 tcp 1040 ------- 1 3.0 2.1 29 60
+ 3.9052 2 4 ack 40 ------- 1 2.1 3.0 29 79
- 3.9052 2 4 ack 40 ------- 1 2.1 3.0 29 79
- 3.9216 3 4 tcp 1040 ------- 1 3.0 2.1 33 66
r 3.9252 2 4 ack 40 ------- 1 2.1 3.0 28 78
+ 3.9252 4 3 ack 40 ------- 1 2.1 3.0 28 78
- 3.9252 4 3 ack 40 ------- 1 2.1 3.0 28 78
r 3.9716 3 4 tcp 1040 ------- 1 3.0 2.1 32 64
+ 3.9716 4 2 tcp 1040 ------- 1 3.0 2.1 32 64
- 3.9716 4 2 tcp 1040 ------- 1 3.0 2.1 32 64
r 3.9784 4 3 ack 40 ------- 1 2.1 3.0 28 78
r 3.9884 4 2 tcp 1040 ------- 1 3.0 2.1 30 61
+ 3.9884 2 4 ack 40 ------- 1 2.1 3.0 30 80
- 3.9884 2 4 ack 40 ------- 1 2.1 3.0 30 80
- 4.0048 3 4 tcp 1040 ------- 1 3.0 2.1 34 67
r 4.0084 2 4 ack 40 ------- 1 2.1 3.0 29 79
+ 4.0084 4 3 ack 40 ------- 1 2.1 3.0 29 79
- 4.0084 4 3 ack 40 ------- 1 2.1 3.0 29 79
+ 4.01816 0 1 tcp 1040 ---A--- 1 0.0 2.0 4 81
- 4.01816 0 1 tcp 1040 ---A--- 1 0.0 2.0 4 81
r 4.0548 3 4 tcp 1040 ------- 1 3.0 2.1 33 66
+ 4.0548 4 2 tcp 1040 ------- 1 3.0 2.1 33 66
- 4.0548 4 2 tcp 1040 ------- 1 3.0 2.1 33 66
r 4.0616 4 3 ack 40 ------- 1 2.1 3.0 29 79
r 4.0716 4 2 tcp 1040 ------- 1 3.0 2.1 31 63
+ 4.0716 2 4 ack 40 ------- 1 2.1 3.0 31 82
- 4.0716 2 4 ack 40 ------- 1 2.1 3.0 31 82
r 4.07232 0 1 tcp 1040 ---A--- 1 0.0 2.0 4 81
r 4.0916 2 4 ack 40 ------- 1 2.1 3.0 30 80
+ 4.0916 4 3 ack 40 ------- 1 2.1 3.0 30 80
- 4.0916 4 3 ack 40 ------- 1 2.1 3.0 30 80
r 4.138 3 4 tcp 1040 ------- 1 3.0 2.1 34 67
+ 4.138 4 2 tcp 1040 ------- 1 3.0 2.1 34 67
- 4.138 4 2 tcp 1040 ------- 1 3.0 2.1 34 67
r 4.1448 4 3 ack 40 ------- 1 2.1 3.0 30 80
r 4.1548 4 2 tcp 1040 ------- 1 3.0 2.1 32 64
+ 4.1548 2 4 ack 40 ------- 1 2.1 3.0 32 83
- 4.1548 2 4 ack 40 ------- 1 2.1 3.0 32 83
r 4.1748 2 4 ack 40 ------- 1 2.1 3.0 31 82
+ 4.1748 4 3 ack 40 ------- 1 2.1 3.0 31 82
- 4.1748 4 3 ack 40 ------- 1 2.1 3.0 31 82
r 4.228 4 3 ack 40 ------- 1 2.1 3.0 31 82
r 4.238 4 2 tcp 1040 ------- 1 3.0 2.1 33 66
+ 4.238 2 4 ack 40 ------- 1 2.1 3.0 33 84
- 4.238 2 4 ack 40 ------- 1 2.1 3.0 33 84
r 4.258 2 4 ack 40 ------- 1 2.1 3.0 32 83
+ 4.258 4 3 ack 40 ------- 1 2.1 3.0 32 83
- 4.258 4 3 ack 40 ------- 1 2.1 3.0 32 83
r 4.3112 4 3 ack 40 ------- 1 2.1 3.0 32 83
r 4.3212 4 2 tcp 1040 ------- 1 3.0 2.1 34 67
+ 4.3212 2 4 ack 40 ------- 1 2.1 3.0 34 85
- 4.3212 2 4 ack 40 ------- 1 2.1 3.0 34 85
r 4.3412 2 4 ack 40 ------- 1 2.1 3.0 33 84
+ 4.3412 4 3 ack 40 ------- 1 2.1 3.0 33 84
- 4.3412 4 3 ack 40 ------- 1 2.1 3.0 33 84
r 4.3944 4 3 ack 40 ------- 1 2.1 3.0 33 84
r 4.4244 2 4 ack 40 ------- 1 2.1 3.0 34 85
+ 4.4244 4 3 ack 40 ------- 1 2.1 3.0 34 85
- 4.4244 4 3 ack 40 ------- 1 2.1 3.0 34 85
r 4.4776 4 3 ack 40 ------- 1 2.1 3.0 34 85
