0.00000  0  0  4  0  cwnd_ 1.000 
0.00000  1  0  4  1  cwnd_ 1.000 
V -t * -v 1.0a5 -a 0
A -t * -n 1 -p 0 -o 0x7fffffff -c 30 -a 1
A -t * -h 1 -m 1073741823 -s 0
c -t * -i 1 -n red
c -t * -i 2 -n cgyan
n -t * -a 4 -s 4 -S UP -v hexagon -c black -i black
n -t * -a 0 -s 0 -S UP -v circle -c black -i black
n -t * -a 1 -s 1 -S UP -v circle -c black -i black
n -t * -a 2 -s 2 -S UP -v square -c black -i black
n -t * -a 3 -s 3 -S UP -v square -c black -i black
l -t * -s 0 -d 2 -S UP -r 5000000 -D 0.050000000000000003 -c black -o down-right
l -t * -s 1 -d 2 -S UP -r 5000000 -D 0.050000000000000003 -c black -o right
l -t * -s 2 -d 3 -S UP -r 150000 -D 0.050000000000000003 -c black -o right
l -t * -s 3 -d 4 -S UP -r 300000 -D 0.050000000000000003 -c black -o up
q -t * -s 2 -d 0 -a 0.1
q -t * -s 0 -d 2 -a 0.1
q -t * -s 4 -d 3 -a 0.5
q -t * -s 3 -d 4 -a 0.5
q -t * -s 2 -d 1 -a 0.1
q -t * -s 1 -d 2 -a 0.1
q -t * -s 3 -d 2 -a 0.5
q -t * -s 2 -d 3 -a 0.5
a -t 0 -s 1 -d 4 -n tcp
n -t 0 -s 0 -S DLABEL -l "Client1" -L ""
n -t 0 -s 1 -S DLABEL -l "Client2" -L ""
n -t 0 -s 2 -S DLABEL -l "Router1" -L ""
n -t 0 -s 3 -S DLABEL -l "Router2" -L ""
n -t 0 -s 4 -S DLABEL -l "Endserver1" -L ""
+ -t 0.5 -s 0 -d 2 -p tcp -e 40 -c 1 -i 0 -a 1 -x {0.0 4.0 0 ------- null}
- -t 0.5 -s 0 -d 2 -p tcp -e 40 -c 1 -i 0 -a 1 -x {0.0 4.0 0 ------- null}
h -t 0.5 -s 0 -d 2 -p tcp -e 40 -c 1 -i 0 -a 1 -x {0.0 4.0 -1 ------- null}
+ -t 0.5 -s 1 -d 2 -p tcp -e 40 -c 2 -i 1 -a 2 -x {1.0 4.1 0 ------- null}
- -t 0.5 -s 1 -d 2 -p tcp -e 40 -c 2 -i 1 -a 2 -x {1.0 4.1 0 ------- null}
h -t 0.5 -s 1 -d 2 -p tcp -e 40 -c 2 -i 1 -a 2 -x {1.0 4.1 -1 ------- null}
r -t 0.550064 -s 0 -d 2 -p tcp -e 40 -c 1 -i 0 -a 1 -x {0.0 4.0 0 ------- null}
+ -t 0.550064 -s 2 -d 3 -p tcp -e 40 -c 1 -i 0 -a 1 -x {0.0 4.0 0 ------- null}
- -t 0.550064 -s 2 -d 3 -p tcp -e 40 -c 1 -i 0 -a 1 -x {0.0 4.0 0 ------- null}
h -t 0.550064 -s 2 -d 3 -p tcp -e 40 -c 1 -i 0 -a 1 -x {0.0 4.0 -1 ------- null}
r -t 0.550064 -s 1 -d 2 -p tcp -e 40 -c 2 -i 1 -a 2 -x {1.0 4.1 0 ------- null}
+ -t 0.550064 -s 2 -d 3 -p tcp -e 40 -c 2 -i 1 -a 2 -x {1.0 4.1 0 ------- null}
- -t 0.552197333333333 -s 2 -d 3 -p tcp -e 40 -c 2 -i 1 -a 2 -x {1.0 4.1 0 ------- null}
h -t 0.552197333333333 -s 2 -d 3 -p tcp -e 40 -c 2 -i 1 -a 2 -x {1.0 4.1 -1 ------- null}
r -t 0.602197333333333 -s 2 -d 3 -p tcp -e 40 -c 1 -i 0 -a 1 -x {0.0 4.0 0 ------- null}
+ -t 0.602197333333333 -s 3 -d 4 -p tcp -e 40 -c 1 -i 0 -a 1 -x {0.0 4.0 0 ------- null}
- -t 0.602197333333333 -s 3 -d 4 -p tcp -e 40 -c 1 -i 0 -a 1 -x {0.0 4.0 0 ------- null}
h -t 0.602197333333333 -s 3 -d 4 -p tcp -e 40 -c 1 -i 0 -a 1 -x {0.0 4.0 -1 ------- null}
r -t 0.604330666666667 -s 2 -d 3 -p tcp -e 40 -c 2 -i 1 -a 2 -x {1.0 4.1 0 ------- null}
+ -t 0.604330666666667 -s 3 -d 4 -p tcp -e 40 -c 2 -i 1 -a 2 -x {1.0 4.1 0 ------- null}
- -t 0.604330666666667 -s 3 -d 4 -p tcp -e 40 -c 2 -i 1 -a 2 -x {1.0 4.1 0 ------- null}
h -t 0.604330666666667 -s 3 -d 4 -p tcp -e 40 -c 2 -i 1 -a 2 -x {1.0 4.1 -1 ------- null}
r -t 0.653264 -s 3 -d 4 -p tcp -e 40 -c 1 -i 0 -a 1 -x {0.0 4.0 0 ------- null}
+ -t 0.653264 -s 4 -d 3 -p ack -e 40 -c 1 -i 2 -a 1 -x {4.0 0.0 0 ------- null}
- -t 0.653264 -s 4 -d 3 -p ack -e 40 -c 1 -i 2 -a 1 -x {4.0 0.0 0 ------- null}
h -t 0.653264 -s 4 -d 3 -p ack -e 40 -c 1 -i 2 -a 1 -x {4.0 0.0 -1 ------- null}
r -t 0.655397333333333 -s 3 -d 4 -p tcp -e 40 -c 2 -i 1 -a 2 -x {1.0 4.1 0 ------- null}
+ -t 0.655397333333333 -s 4 -d 3 -p ack -e 40 -c 2 -i 3 -a 2 -x {4.1 1.0 0 ------- null}
- -t 0.655397333333333 -s 4 -d 3 -p ack -e 40 -c 2 -i 3 -a 2 -x {4.1 1.0 0 ------- null}
h -t 0.655397333333333 -s 4 -d 3 -p ack -e 40 -c 2 -i 3 -a 2 -x {4.1 1.0 -1 ------- null}
r -t 0.704330666666667 -s 4 -d 3 -p ack -e 40 -c 1 -i 2 -a 1 -x {4.0 0.0 0 ------- null}
+ -t 0.704330666666667 -s 3 -d 2 -p ack -e 40 -c 1 -i 2 -a 1 -x {4.0 0.0 0 ------- null}
- -t 0.704330666666667 -s 3 -d 2 -p ack -e 40 -c 1 -i 2 -a 1 -x {4.0 0.0 0 ------- null}
h -t 0.704330666666667 -s 3 -d 2 -p ack -e 40 -c 1 -i 2 -a 1 -x {4.0 0.0 -1 ------- null}
r -t 0.706464 -s 4 -d 3 -p ack -e 40 -c 2 -i 3 -a 2 -x {4.1 1.0 0 ------- null}
+ -t 0.706464 -s 3 -d 2 -p ack -e 40 -c 2 -i 3 -a 2 -x {4.1 1.0 0 ------- null}
- -t 0.706464 -s 3 -d 2 -p ack -e 40 -c 2 -i 3 -a 2 -x {4.1 1.0 0 ------- null}
h -t 0.706464 -s 3 -d 2 -p ack -e 40 -c 2 -i 3 -a 2 -x {4.1 1.0 -1 ------- null}
r -t 0.756464 -s 3 -d 2 -p ack -e 40 -c 1 -i 2 -a 1 -x {4.0 0.0 0 ------- null}
+ -t 0.756464 -s 2 -d 0 -p ack -e 40 -c 1 -i 2 -a 1 -x {4.0 0.0 0 ------- null}
- -t 0.756464 -s 2 -d 0 -p ack -e 40 -c 1 -i 2 -a 1 -x {4.0 0.0 0 ------- null}
h -t 0.756464 -s 2 -d 0 -p ack -e 40 -c 1 -i 2 -a 1 -x {4.0 0.0 -1 ------- null}
r -t 0.758597333333333 -s 3 -d 2 -p ack -e 40 -c 2 -i 3 -a 2 -x {4.1 1.0 0 ------- null}
+ -t 0.758597333333333 -s 2 -d 1 -p ack -e 40 -c 2 -i 3 -a 2 -x {4.1 1.0 0 ------- null}
- -t 0.758597333333333 -s 2 -d 1 -p ack -e 40 -c 2 -i 3 -a 2 -x {4.1 1.0 0 ------- null}
h -t 0.758597333333333 -s 2 -d 1 -p ack -e 40 -c 2 -i 3 -a 2 -x {4.1 1.0 -1 ------- null}
r -t 0.806528 -s 2 -d 0 -p ack -e 40 -c 1 -i 2 -a 1 -x {4.0 0.0 0 ------- null}
0.80653  0  0  4  0  cwnd_ 2.000 
+ -t 0.806528 -s 0 -d 2 -p tcp -e 1040 -c 1 -i 4 -a 1 -x {0.0 4.0 1 ------- null}
- -t 0.806528 -s 0 -d 2 -p tcp -e 1040 -c 1 -i 4 -a 1 -x {0.0 4.0 1 ------- null}
h -t 0.806528 -s 0 -d 2 -p tcp -e 1040 -c 1 -i 4 -a 1 -x {0.0 4.0 -1 ------- null}
+ -t 0.806528 -s 0 -d 2 -p tcp -e 1040 -c 1 -i 5 -a 1 -x {0.0 4.0 2 ------- null}
- -t 0.808192 -s 0 -d 2 -p tcp -e 1040 -c 1 -i 5 -a 1 -x {0.0 4.0 2 ------- null}
h -t 0.808192 -s 0 -d 2 -p tcp -e 1040 -c 1 -i 5 -a 1 -x {0.0 4.0 -1 ------- null}
r -t 0.808661333333333 -s 2 -d 1 -p ack -e 40 -c 2 -i 3 -a 2 -x {4.1 1.0 0 ------- null}
0.80866  1  0  4  1  cwnd_ 2.000 
+ -t 0.808661333333333 -s 1 -d 2 -p tcp -e 1040 -c 2 -i 6 -a 2 -x {1.0 4.1 1 ------- null}
- -t 0.808661333333333 -s 1 -d 2 -p tcp -e 1040 -c 2 -i 6 -a 2 -x {1.0 4.1 1 ------- null}
h -t 0.808661333333333 -s 1 -d 2 -p tcp -e 1040 -c 2 -i 6 -a 2 -x {1.0 4.1 -1 ------- null}
+ -t 0.808661333333333 -s 1 -d 2 -p tcp -e 1040 -c 2 -i 7 -a 2 -x {1.0 4.1 2 ------- null}
- -t 0.810325333333333 -s 1 -d 2 -p tcp -e 1040 -c 2 -i 7 -a 2 -x {1.0 4.1 2 ------- null}
h -t 0.810325333333333 -s 1 -d 2 -p tcp -e 1040 -c 2 -i 7 -a 2 -x {1.0 4.1 -1 ------- null}
r -t 0.858192 -s 0 -d 2 -p tcp -e 1040 -c 1 -i 4 -a 1 -x {0.0 4.0 1 ------- null}
+ -t 0.858192 -s 2 -d 3 -p tcp -e 1040 -c 1 -i 4 -a 1 -x {0.0 4.0 1 ------- null}
- -t 0.858192 -s 2 -d 3 -p tcp -e 1040 -c 1 -i 4 -a 1 -x {0.0 4.0 1 ------- null}
h -t 0.858192 -s 2 -d 3 -p tcp -e 1040 -c 1 -i 4 -a 1 -x {0.0 4.0 -1 ------- null}
r -t 0.859856 -s 0 -d 2 -p tcp -e 1040 -c 1 -i 5 -a 1 -x {0.0 4.0 2 ------- null}
+ -t 0.859856 -s 2 -d 3 -p tcp -e 1040 -c 1 -i 5 -a 1 -x {0.0 4.0 2 ------- null}
r -t 0.860325333333333 -s 1 -d 2 -p tcp -e 1040 -c 2 -i 6 -a 2 -x {1.0 4.1 1 ------- null}
+ -t 0.860325333333333 -s 2 -d 3 -p tcp -e 1040 -c 2 -i 6 -a 2 -x {1.0 4.1 1 ------- null}
r -t 0.861989333333333 -s 1 -d 2 -p tcp -e 1040 -c 2 -i 7 -a 2 -x {1.0 4.1 2 ------- null}
+ -t 0.861989333333333 -s 2 -d 3 -p tcp -e 1040 -c 2 -i 7 -a 2 -x {1.0 4.1 2 ------- null}
- -t 0.913658666666667 -s 2 -d 3 -p tcp -e 1040 -c 1 -i 5 -a 1 -x {0.0 4.0 2 ------- null}
h -t 0.913658666666667 -s 2 -d 3 -p tcp -e 1040 -c 1 -i 5 -a 1 -x {0.0 4.0 -1 ------- null}
r -t 0.963658666666667 -s 2 -d 3 -p tcp -e 1040 -c 1 -i 4 -a 1 -x {0.0 4.0 1 ------- null}
+ -t 0.963658666666667 -s 3 -d 4 -p tcp -e 1040 -c 1 -i 4 -a 1 -x {0.0 4.0 1 ------- null}
- -t 0.963658666666667 -s 3 -d 4 -p tcp -e 1040 -c 1 -i 4 -a 1 -x {0.0 4.0 1 ------- null}
h -t 0.963658666666667 -s 3 -d 4 -p tcp -e 1040 -c 1 -i 4 -a 1 -x {0.0 4.0 -1 ------- null}
- -t 0.969125333333334 -s 2 -d 3 -p tcp -e 1040 -c 2 -i 6 -a 2 -x {1.0 4.1 1 ------- null}
h -t 0.969125333333334 -s 2 -d 3 -p tcp -e 1040 -c 2 -i 6 -a 2 -x {1.0 4.1 -1 ------- null}
r -t 1.01912533333333 -s 2 -d 3 -p tcp -e 1040 -c 1 -i 5 -a 1 -x {0.0 4.0 2 ------- null}
+ -t 1.01912533333333 -s 3 -d 4 -p tcp -e 1040 -c 1 -i 5 -a 1 -x {0.0 4.0 2 ------- null}
- -t 1.01912533333333 -s 3 -d 4 -p tcp -e 1040 -c 1 -i 5 -a 1 -x {0.0 4.0 2 ------- null}
h -t 1.01912533333333 -s 3 -d 4 -p tcp -e 1040 -c 1 -i 5 -a 1 -x {0.0 4.0 -1 ------- null}
- -t 1.024592 -s 2 -d 3 -p tcp -e 1040 -c 2 -i 7 -a 2 -x {1.0 4.1 2 ------- null}
h -t 1.024592 -s 2 -d 3 -p tcp -e 1040 -c 2 -i 7 -a 2 -x {1.0 4.1 -1 ------- null}
r -t 1.041392 -s 3 -d 4 -p tcp -e 1040 -c 1 -i 4 -a 1 -x {0.0 4.0 1 ------- null}
+ -t 1.041392 -s 4 -d 3 -p ack -e 40 -c 1 -i 8 -a 1 -x {4.0 0.0 1 ------- null}
- -t 1.041392 -s 4 -d 3 -p ack -e 40 -c 1 -i 8 -a 1 -x {4.0 0.0 1 ------- null}
h -t 1.041392 -s 4 -d 3 -p ack -e 40 -c 1 -i 8 -a 1 -x {4.0 0.0 -1 ------- null}
r -t 1.074592 -s 2 -d 3 -p tcp -e 1040 -c 2 -i 6 -a 2 -x {1.0 4.1 1 ------- null}
+ -t 1.074592 -s 3 -d 4 -p tcp -e 1040 -c 2 -i 6 -a 2 -x {1.0 4.1 1 ------- null}
- -t 1.074592 -s 3 -d 4 -p tcp -e 1040 -c 2 -i 6 -a 2 -x {1.0 4.1 1 ------- null}
h -t 1.074592 -s 3 -d 4 -p tcp -e 1040 -c 2 -i 6 -a 2 -x {1.0 4.1 -1 ------- null}
r -t 1.09245866666667 -s 4 -d 3 -p ack -e 40 -c 1 -i 8 -a 1 -x {4.0 0.0 1 ------- null}
+ -t 1.09245866666667 -s 3 -d 2 -p ack -e 40 -c 1 -i 8 -a 1 -x {4.0 0.0 1 ------- null}
- -t 1.09245866666667 -s 3 -d 2 -p ack -e 40 -c 1 -i 8 -a 1 -x {4.0 0.0 1 ------- null}
h -t 1.09245866666667 -s 3 -d 2 -p ack -e 40 -c 1 -i 8 -a 1 -x {4.0 0.0 -1 ------- null}
r -t 1.09685866666667 -s 3 -d 4 -p tcp -e 1040 -c 1 -i 5 -a 1 -x {0.0 4.0 2 ------- null}
+ -t 1.09685866666667 -s 4 -d 3 -p ack -e 40 -c 1 -i 9 -a 1 -x {4.0 0.0 2 ------- null}
- -t 1.09685866666667 -s 4 -d 3 -p ack -e 40 -c 1 -i 9 -a 1 -x {4.0 0.0 2 ------- null}
h -t 1.09685866666667 -s 4 -d 3 -p ack -e 40 -c 1 -i 9 -a 1 -x {4.0 0.0 -1 ------- null}
r -t 1.13005866666667 -s 2 -d 3 -p tcp -e 1040 -c 2 -i 7 -a 2 -x {1.0 4.1 2 ------- null}
+ -t 1.13005866666667 -s 3 -d 4 -p tcp -e 1040 -c 2 -i 7 -a 2 -x {1.0 4.1 2 ------- null}
- -t 1.13005866666667 -s 3 -d 4 -p tcp -e 1040 -c 2 -i 7 -a 2 -x {1.0 4.1 2 ------- null}
h -t 1.13005866666667 -s 3 -d 4 -p tcp -e 1040 -c 2 -i 7 -a 2 -x {1.0 4.1 -1 ------- null}
r -t 1.144592 -s 3 -d 2 -p ack -e 40 -c 1 -i 8 -a 1 -x {4.0 0.0 1 ------- null}
+ -t 1.144592 -s 2 -d 0 -p ack -e 40 -c 1 -i 8 -a 1 -x {4.0 0.0 1 ------- null}
- -t 1.144592 -s 2 -d 0 -p ack -e 40 -c 1 -i 8 -a 1 -x {4.0 0.0 1 ------- null}
h -t 1.144592 -s 2 -d 0 -p ack -e 40 -c 1 -i 8 -a 1 -x {4.0 0.0 -1 ------- null}
r -t 1.14792533333333 -s 4 -d 3 -p ack -e 40 -c 1 -i 9 -a 1 -x {4.0 0.0 2 ------- null}
+ -t 1.14792533333333 -s 3 -d 2 -p ack -e 40 -c 1 -i 9 -a 1 -x {4.0 0.0 2 ------- null}
- -t 1.14792533333333 -s 3 -d 2 -p ack -e 40 -c 1 -i 9 -a 1 -x {4.0 0.0 2 ------- null}
h -t 1.14792533333333 -s 3 -d 2 -p ack -e 40 -c 1 -i 9 -a 1 -x {4.0 0.0 -1 ------- null}
r -t 1.15232533333333 -s 3 -d 4 -p tcp -e 1040 -c 2 -i 6 -a 2 -x {1.0 4.1 1 ------- null}
+ -t 1.15232533333333 -s 4 -d 3 -p ack -e 40 -c 2 -i 10 -a 2 -x {4.1 1.0 1 ------- null}
- -t 1.15232533333333 -s 4 -d 3 -p ack -e 40 -c 2 -i 10 -a 2 -x {4.1 1.0 1 ------- null}
h -t 1.15232533333333 -s 4 -d 3 -p ack -e 40 -c 2 -i 10 -a 2 -x {4.1 1.0 -1 ------- null}
r -t 1.194656 -s 2 -d 0 -p ack -e 40 -c 1 -i 8 -a 1 -x {4.0 0.0 1 ------- null}
1.19466  0  0  4  0  cwnd_ 3.000 
+ -t 1.194656 -s 0 -d 2 -p tcp -e 1040 -c 1 -i 11 -a 1 -x {0.0 4.0 3 ------- null}
- -t 1.194656 -s 0 -d 2 -p tcp -e 1040 -c 1 -i 11 -a 1 -x {0.0 4.0 3 ------- null}
h -t 1.194656 -s 0 -d 2 -p tcp -e 1040 -c 1 -i 11 -a 1 -x {0.0 4.0 -1 ------- null}
+ -t 1.194656 -s 0 -d 2 -p tcp -e 1040 -c 1 -i 12 -a 1 -x {0.0 4.0 4 ------- null}
- -t 1.19632 -s 0 -d 2 -p tcp -e 1040 -c 1 -i 12 -a 1 -x {0.0 4.0 4 ------- null}
h -t 1.19632 -s 0 -d 2 -p tcp -e 1040 -c 1 -i 12 -a 1 -x {0.0 4.0 -1 ------- null}
r -t 1.20005866666667 -s 3 -d 2 -p ack -e 40 -c 1 -i 9 -a 1 -x {4.0 0.0 2 ------- null}
+ -t 1.20005866666667 -s 2 -d 0 -p ack -e 40 -c 1 -i 9 -a 1 -x {4.0 0.0 2 ------- null}
- -t 1.20005866666667 -s 2 -d 0 -p ack -e 40 -c 1 -i 9 -a 1 -x {4.0 0.0 2 ------- null}
h -t 1.20005866666667 -s 2 -d 0 -p ack -e 40 -c 1 -i 9 -a 1 -x {4.0 0.0 -1 ------- null}
r -t 1.203392 -s 4 -d 3 -p ack -e 40 -c 2 -i 10 -a 2 -x {4.1 1.0 1 ------- null}
+ -t 1.203392 -s 3 -d 2 -p ack -e 40 -c 2 -i 10 -a 2 -x {4.1 1.0 1 ------- null}
- -t 1.203392 -s 3 -d 2 -p ack -e 40 -c 2 -i 10 -a 2 -x {4.1 1.0 1 ------- null}
h -t 1.203392 -s 3 -d 2 -p ack -e 40 -c 2 -i 10 -a 2 -x {4.1 1.0 -1 ------- null}
r -t 1.207792 -s 3 -d 4 -p tcp -e 1040 -c 2 -i 7 -a 2 -x {1.0 4.1 2 ------- null}
+ -t 1.207792 -s 4 -d 3 -p ack -e 40 -c 2 -i 13 -a 2 -x {4.1 1.0 2 ------- null}
- -t 1.207792 -s 4 -d 3 -p ack -e 40 -c 2 -i 13 -a 2 -x {4.1 1.0 2 ------- null}
h -t 1.207792 -s 4 -d 3 -p ack -e 40 -c 2 -i 13 -a 2 -x {4.1 1.0 -1 ------- null}
r -t 1.24632 -s 0 -d 2 -p tcp -e 1040 -c 1 -i 11 -a 1 -x {0.0 4.0 3 ------- null}
+ -t 1.24632 -s 2 -d 3 -p tcp -e 1040 -c 1 -i 11 -a 1 -x {0.0 4.0 3 ------- null}
- -t 1.24632 -s 2 -d 3 -p tcp -e 1040 -c 1 -i 11 -a 1 -x {0.0 4.0 3 ------- null}
h -t 1.24632 -s 2 -d 3 -p tcp -e 1040 -c 1 -i 11 -a 1 -x {0.0 4.0 -1 ------- null}
r -t 1.247984 -s 0 -d 2 -p tcp -e 1040 -c 1 -i 12 -a 1 -x {0.0 4.0 4 ------- null}
+ -t 1.247984 -s 2 -d 3 -p tcp -e 1040 -c 1 -i 12 -a 1 -x {0.0 4.0 4 ------- null}
r -t 1.25012266666667 -s 2 -d 0 -p ack -e 40 -c 1 -i 9 -a 1 -x {4.0 0.0 2 ------- null}
1.25012  0  0  4  0  cwnd_ 4.000 
+ -t 1.25012266666667 -s 0 -d 2 -p tcp -e 1040 -c 1 -i 14 -a 1 -x {0.0 4.0 5 ------- null}
- -t 1.25012266666667 -s 0 -d 2 -p tcp -e 1040 -c 1 -i 14 -a 1 -x {0.0 4.0 5 ------- null}
h -t 1.25012266666667 -s 0 -d 2 -p tcp -e 1040 -c 1 -i 14 -a 1 -x {0.0 4.0 -1 ------- null}
+ -t 1.25012266666667 -s 0 -d 2 -p tcp -e 1040 -c 1 -i 15 -a 1 -x {0.0 4.0 6 ------- null}
- -t 1.25178666666667 -s 0 -d 2 -p tcp -e 1040 -c 1 -i 15 -a 1 -x {0.0 4.0 6 ------- null}
h -t 1.25178666666667 -s 0 -d 2 -p tcp -e 1040 -c 1 -i 15 -a 1 -x {0.0 4.0 -1 ------- null}
r -t 1.25552533333333 -s 3 -d 2 -p ack -e 40 -c 2 -i 10 -a 2 -x {4.1 1.0 1 ------- null}
+ -t 1.25552533333333 -s 2 -d 1 -p ack -e 40 -c 2 -i 10 -a 2 -x {4.1 1.0 1 ------- null}
- -t 1.25552533333333 -s 2 -d 1 -p ack -e 40 -c 2 -i 10 -a 2 -x {4.1 1.0 1 ------- null}
h -t 1.25552533333333 -s 2 -d 1 -p ack -e 40 -c 2 -i 10 -a 2 -x {4.1 1.0 -1 ------- null}
r -t 1.25885866666667 -s 4 -d 3 -p ack -e 40 -c 2 -i 13 -a 2 -x {4.1 1.0 2 ------- null}
+ -t 1.25885866666667 -s 3 -d 2 -p ack -e 40 -c 2 -i 13 -a 2 -x {4.1 1.0 2 ------- null}
- -t 1.25885866666667 -s 3 -d 2 -p ack -e 40 -c 2 -i 13 -a 2 -x {4.1 1.0 2 ------- null}
h -t 1.25885866666667 -s 3 -d 2 -p ack -e 40 -c 2 -i 13 -a 2 -x {4.1 1.0 -1 ------- null}
r -t 1.30178666666667 -s 0 -d 2 -p tcp -e 1040 -c 1 -i 14 -a 1 -x {0.0 4.0 5 ------- null}
+ -t 1.30178666666667 -s 2 -d 3 -p tcp -e 1040 -c 1 -i 14 -a 1 -x {0.0 4.0 5 ------- null}
- -t 1.30178666666667 -s 2 -d 3 -p tcp -e 1040 -c 1 -i 12 -a 1 -x {0.0 4.0 4 ------- null}
h -t 1.30178666666667 -s 2 -d 3 -p tcp -e 1040 -c 1 -i 12 -a 1 -x {0.0 4.0 -1 ------- null}
r -t 1.30345066666667 -s 0 -d 2 -p tcp -e 1040 -c 1 -i 15 -a 1 -x {0.0 4.0 6 ------- null}
+ -t 1.30345066666667 -s 2 -d 3 -p tcp -e 1040 -c 1 -i 15 -a 1 -x {0.0 4.0 6 ------- null}
r -t 1.30558933333333 -s 2 -d 1 -p ack -e 40 -c 2 -i 10 -a 2 -x {4.1 1.0 1 ------- null}
1.30559  1  0  4  1  cwnd_ 3.000 
+ -t 1.30558933333333 -s 1 -d 2 -p tcp -e 1040 -c 2 -i 16 -a 2 -x {1.0 4.1 3 ------- null}
- -t 1.30558933333333 -s 1 -d 2 -p tcp -e 1040 -c 2 -i 16 -a 2 -x {1.0 4.1 3 ------- null}
h -t 1.30558933333333 -s 1 -d 2 -p tcp -e 1040 -c 2 -i 16 -a 2 -x {1.0 4.1 -1 ------- null}
+ -t 1.30558933333333 -s 1 -d 2 -p tcp -e 1040 -c 2 -i 17 -a 2 -x {1.0 4.1 4 ------- null}
- -t 1.30725333333333 -s 1 -d 2 -p tcp -e 1040 -c 2 -i 17 -a 2 -x {1.0 4.1 4 ------- null}
h -t 1.30725333333333 -s 1 -d 2 -p tcp -e 1040 -c 2 -i 17 -a 2 -x {1.0 4.1 -1 ------- null}
r -t 1.310992 -s 3 -d 2 -p ack -e 40 -c 2 -i 13 -a 2 -x {4.1 1.0 2 ------- null}
+ -t 1.310992 -s 2 -d 1 -p ack -e 40 -c 2 -i 13 -a 2 -x {4.1 1.0 2 ------- null}
- -t 1.310992 -s 2 -d 1 -p ack -e 40 -c 2 -i 13 -a 2 -x {4.1 1.0 2 ------- null}
h -t 1.310992 -s 2 -d 1 -p ack -e 40 -c 2 -i 13 -a 2 -x {4.1 1.0 -1 ------- null}
r -t 1.35178666666667 -s 2 -d 3 -p tcp -e 1040 -c 1 -i 11 -a 1 -x {0.0 4.0 3 ------- null}
+ -t 1.35178666666667 -s 3 -d 4 -p tcp -e 1040 -c 1 -i 11 -a 1 -x {0.0 4.0 3 ------- null}
- -t 1.35178666666667 -s 3 -d 4 -p tcp -e 1040 -c 1 -i 11 -a 1 -x {0.0 4.0 3 ------- null}
h -t 1.35178666666667 -s 3 -d 4 -p tcp -e 1040 -c 1 -i 11 -a 1 -x {0.0 4.0 -1 ------- null}
r -t 1.35725333333333 -s 1 -d 2 -p tcp -e 1040 -c 2 -i 16 -a 2 -x {1.0 4.1 3 ------- null}
+ -t 1.35725333333333 -s 2 -d 3 -p tcp -e 1040 -c 2 -i 16 -a 2 -x {1.0 4.1 3 ------- null}
- -t 1.35725333333333 -s 2 -d 3 -p tcp -e 1040 -c 1 -i 14 -a 1 -x {0.0 4.0 5 ------- null}
h -t 1.35725333333333 -s 2 -d 3 -p tcp -e 1040 -c 1 -i 14 -a 1 -x {0.0 4.0 -1 ------- null}
r -t 1.35891733333333 -s 1 -d 2 -p tcp -e 1040 -c 2 -i 17 -a 2 -x {1.0 4.1 4 ------- null}
+ -t 1.35891733333333 -s 2 -d 3 -p tcp -e 1040 -c 2 -i 17 -a 2 -x {1.0 4.1 4 ------- null}
r -t 1.361056 -s 2 -d 1 -p ack -e 40 -c 2 -i 13 -a 2 -x {4.1 1.0 2 ------- null}
1.36106  1  0  4  1  cwnd_ 4.000 
+ -t 1.361056 -s 1 -d 2 -p tcp -e 1040 -c 2 -i 18 -a 2 -x {1.0 4.1 5 ------- null}
- -t 1.361056 -s 1 -d 2 -p tcp -e 1040 -c 2 -i 18 -a 2 -x {1.0 4.1 5 ------- null}
h -t 1.361056 -s 1 -d 2 -p tcp -e 1040 -c 2 -i 18 -a 2 -x {1.0 4.1 -1 ------- null}
+ -t 1.361056 -s 1 -d 2 -p tcp -e 1040 -c 2 -i 19 -a 2 -x {1.0 4.1 6 ------- null}
- -t 1.36272 -s 1 -d 2 -p tcp -e 1040 -c 2 -i 19 -a 2 -x {1.0 4.1 6 ------- null}
h -t 1.36272 -s 1 -d 2 -p tcp -e 1040 -c 2 -i 19 -a 2 -x {1.0 4.1 -1 ------- null}
r -t 1.40725333333333 -s 2 -d 3 -p tcp -e 1040 -c 1 -i 12 -a 1 -x {0.0 4.0 4 ------- null}
+ -t 1.40725333333333 -s 3 -d 4 -p tcp -e 1040 -c 1 -i 12 -a 1 -x {0.0 4.0 4 ------- null}
- -t 1.40725333333333 -s 3 -d 4 -p tcp -e 1040 -c 1 -i 12 -a 1 -x {0.0 4.0 4 ------- null}
h -t 1.40725333333333 -s 3 -d 4 -p tcp -e 1040 -c 1 -i 12 -a 1 -x {0.0 4.0 -1 ------- null}
r -t 1.41272 -s 1 -d 2 -p tcp -e 1040 -c 2 -i 18 -a 2 -x {1.0 4.1 5 ------- null}
+ -t 1.41272 -s 2 -d 3 -p tcp -e 1040 -c 2 -i 18 -a 2 -x {1.0 4.1 5 ------- null}
- -t 1.41272 -s 2 -d 3 -p tcp -e 1040 -c 1 -i 15 -a 1 -x {0.0 4.0 6 ------- null}
h -t 1.41272 -s 2 -d 3 -p tcp -e 1040 -c 1 -i 15 -a 1 -x {0.0 4.0 -1 ------- null}
r -t 1.414384 -s 1 -d 2 -p tcp -e 1040 -c 2 -i 19 -a 2 -x {1.0 4.1 6 ------- null}
+ -t 1.414384 -s 2 -d 3 -p tcp -e 1040 -c 2 -i 19 -a 2 -x {1.0 4.1 6 ------- null}
r -t 1.42952 -s 3 -d 4 -p tcp -e 1040 -c 1 -i 11 -a 1 -x {0.0 4.0 3 ------- null}
+ -t 1.42952 -s 4 -d 3 -p ack -e 40 -c 1 -i 20 -a 1 -x {4.0 0.0 3 ------- null}
- -t 1.42952 -s 4 -d 3 -p ack -e 40 -c 1 -i 20 -a 1 -x {4.0 0.0 3 ------- null}
h -t 1.42952 -s 4 -d 3 -p ack -e 40 -c 1 -i 20 -a 1 -x {4.0 0.0 -1 ------- null}
r -t 1.46272 -s 2 -d 3 -p tcp -e 1040 -c 1 -i 14 -a 1 -x {0.0 4.0 5 ------- null}
+ -t 1.46272 -s 3 -d 4 -p tcp -e 1040 -c 1 -i 14 -a 1 -x {0.0 4.0 5 ------- null}
- -t 1.46272 -s 3 -d 4 -p tcp -e 1040 -c 1 -i 14 -a 1 -x {0.0 4.0 5 ------- null}
h -t 1.46272 -s 3 -d 4 -p tcp -e 1040 -c 1 -i 14 -a 1 -x {0.0 4.0 -1 ------- null}
- -t 1.46818666666667 -s 2 -d 3 -p tcp -e 1040 -c 2 -i 16 -a 2 -x {1.0 4.1 3 ------- null}
h -t 1.46818666666667 -s 2 -d 3 -p tcp -e 1040 -c 2 -i 16 -a 2 -x {1.0 4.1 -1 ------- null}
r -t 1.48058666666667 -s 4 -d 3 -p ack -e 40 -c 1 -i 20 -a 1 -x {4.0 0.0 3 ------- null}
+ -t 1.48058666666667 -s 3 -d 2 -p ack -e 40 -c 1 -i 20 -a 1 -x {4.0 0.0 3 ------- null}
- -t 1.48058666666667 -s 3 -d 2 -p ack -e 40 -c 1 -i 20 -a 1 -x {4.0 0.0 3 ------- null}
h -t 1.48058666666667 -s 3 -d 2 -p ack -e 40 -c 1 -i 20 -a 1 -x {4.0 0.0 -1 ------- null}
r -t 1.48498666666667 -s 3 -d 4 -p tcp -e 1040 -c 1 -i 12 -a 1 -x {0.0 4.0 4 ------- null}
+ -t 1.48498666666667 -s 4 -d 3 -p ack -e 40 -c 1 -i 21 -a 1 -x {4.0 0.0 4 ------- null}
- -t 1.48498666666667 -s 4 -d 3 -p ack -e 40 -c 1 -i 21 -a 1 -x {4.0 0.0 4 ------- null}
h -t 1.48498666666667 -s 4 -d 3 -p ack -e 40 -c 1 -i 21 -a 1 -x {4.0 0.0 -1 ------- null}
r -t 1.51818666666667 -s 2 -d 3 -p tcp -e 1040 -c 1 -i 15 -a 1 -x {0.0 4.0 6 ------- null}
+ -t 1.51818666666667 -s 3 -d 4 -p tcp -e 1040 -c 1 -i 15 -a 1 -x {0.0 4.0 6 ------- null}
- -t 1.51818666666667 -s 3 -d 4 -p tcp -e 1040 -c 1 -i 15 -a 1 -x {0.0 4.0 6 ------- null}
h -t 1.51818666666667 -s 3 -d 4 -p tcp -e 1040 -c 1 -i 15 -a 1 -x {0.0 4.0 -1 ------- null}
- -t 1.52365333333333 -s 2 -d 3 -p tcp -e 1040 -c 2 -i 17 -a 2 -x {1.0 4.1 4 ------- null}
h -t 1.52365333333333 -s 2 -d 3 -p tcp -e 1040 -c 2 -i 17 -a 2 -x {1.0 4.1 -1 ------- null}
r -t 1.53272 -s 3 -d 2 -p ack -e 40 -c 1 -i 20 -a 1 -x {4.0 0.0 3 ------- null}
+ -t 1.53272 -s 2 -d 0 -p ack -e 40 -c 1 -i 20 -a 1 -x {4.0 0.0 3 ------- null}
- -t 1.53272 -s 2 -d 0 -p ack -e 40 -c 1 -i 20 -a 1 -x {4.0 0.0 3 ------- null}
h -t 1.53272 -s 2 -d 0 -p ack -e 40 -c 1 -i 20 -a 1 -x {4.0 0.0 -1 ------- null}
r -t 1.53605333333333 -s 4 -d 3 -p ack -e 40 -c 1 -i 21 -a 1 -x {4.0 0.0 4 ------- null}
+ -t 1.53605333333333 -s 3 -d 2 -p ack -e 40 -c 1 -i 21 -a 1 -x {4.0 0.0 4 ------- null}
- -t 1.53605333333333 -s 3 -d 2 -p ack -e 40 -c 1 -i 21 -a 1 -x {4.0 0.0 4 ------- null}
h -t 1.53605333333333 -s 3 -d 2 -p ack -e 40 -c 1 -i 21 -a 1 -x {4.0 0.0 -1 ------- null}
r -t 1.54045333333333 -s 3 -d 4 -p tcp -e 1040 -c 1 -i 14 -a 1 -x {0.0 4.0 5 ------- null}
+ -t 1.54045333333333 -s 4 -d 3 -p ack -e 40 -c 1 -i 22 -a 1 -x {4.0 0.0 5 ------- null}
- -t 1.54045333333333 -s 4 -d 3 -p ack -e 40 -c 1 -i 22 -a 1 -x {4.0 0.0 5 ------- null}
h -t 1.54045333333333 -s 4 -d 3 -p ack -e 40 -c 1 -i 22 -a 1 -x {4.0 0.0 -1 ------- null}
r -t 1.57365333333333 -s 2 -d 3 -p tcp -e 1040 -c 2 -i 16 -a 2 -x {1.0 4.1 3 ------- null}
+ -t 1.57365333333333 -s 3 -d 4 -p tcp -e 1040 -c 2 -i 16 -a 2 -x {1.0 4.1 3 ------- null}
- -t 1.57365333333333 -s 3 -d 4 -p tcp -e 1040 -c 2 -i 16 -a 2 -x {1.0 4.1 3 ------- null}
h -t 1.57365333333333 -s 3 -d 4 -p tcp -e 1040 -c 2 -i 16 -a 2 -x {1.0 4.1 -1 ------- null}
- -t 1.57912 -s 2 -d 3 -p tcp -e 1040 -c 2 -i 18 -a 2 -x {1.0 4.1 5 ------- null}
h -t 1.57912 -s 2 -d 3 -p tcp -e 1040 -c 2 -i 18 -a 2 -x {1.0 4.1 -1 ------- null}
r -t 1.582784 -s 2 -d 0 -p ack -e 40 -c 1 -i 20 -a 1 -x {4.0 0.0 3 ------- null}
1.58278  0  0  4  0  cwnd_ 5.000 
+ -t 1.582784 -s 0 -d 2 -p tcp -e 1040 -c 1 -i 23 -a 1 -x {0.0 4.0 7 ------- null}
- -t 1.582784 -s 0 -d 2 -p tcp -e 1040 -c 1 -i 23 -a 1 -x {0.0 4.0 7 ------- null}
h -t 1.582784 -s 0 -d 2 -p tcp -e 1040 -c 1 -i 23 -a 1 -x {0.0 4.0 -1 ------- null}
+ -t 1.582784 -s 0 -d 2 -p tcp -e 1040 -c 1 -i 24 -a 1 -x {0.0 4.0 8 ------- null}
- -t 1.584448 -s 0 -d 2 -p tcp -e 1040 -c 1 -i 24 -a 1 -x {0.0 4.0 8 ------- null}
h -t 1.584448 -s 0 -d 2 -p tcp -e 1040 -c 1 -i 24 -a 1 -x {0.0 4.0 -1 ------- null}
r -t 1.58818666666667 -s 3 -d 2 -p ack -e 40 -c 1 -i 21 -a 1 -x {4.0 0.0 4 ------- null}
+ -t 1.58818666666667 -s 2 -d 0 -p ack -e 40 -c 1 -i 21 -a 1 -x {4.0 0.0 4 ------- null}
- -t 1.58818666666667 -s 2 -d 0 -p ack -e 40 -c 1 -i 21 -a 1 -x {4.0 0.0 4 ------- null}
h -t 1.58818666666667 -s 2 -d 0 -p ack -e 40 -c 1 -i 21 -a 1 -x {4.0 0.0 -1 ------- null}
r -t 1.59152 -s 4 -d 3 -p ack -e 40 -c 1 -i 22 -a 1 -x {4.0 0.0 5 ------- null}
+ -t 1.59152 -s 3 -d 2 -p ack -e 40 -c 1 -i 22 -a 1 -x {4.0 0.0 5 ------- null}
- -t 1.59152 -s 3 -d 2 -p ack -e 40 -c 1 -i 22 -a 1 -x {4.0 0.0 5 ------- null}
h -t 1.59152 -s 3 -d 2 -p ack -e 40 -c 1 -i 22 -a 1 -x {4.0 0.0 -1 ------- null}
r -t 1.59592 -s 3 -d 4 -p tcp -e 1040 -c 1 -i 15 -a 1 -x {0.0 4.0 6 ------- null}
+ -t 1.59592 -s 4 -d 3 -p ack -e 40 -c 1 -i 25 -a 1 -x {4.0 0.0 6 ------- null}
- -t 1.59592 -s 4 -d 3 -p ack -e 40 -c 1 -i 25 -a 1 -x {4.0 0.0 6 ------- null}
h -t 1.59592 -s 4 -d 3 -p ack -e 40 -c 1 -i 25 -a 1 -x {4.0 0.0 -1 ------- null}
r -t 1.62912 -s 2 -d 3 -p tcp -e 1040 -c 2 -i 17 -a 2 -x {1.0 4.1 4 ------- null}
+ -t 1.62912 -s 3 -d 4 -p tcp -e 1040 -c 2 -i 17 -a 2 -x {1.0 4.1 4 ------- null}
- -t 1.62912 -s 3 -d 4 -p tcp -e 1040 -c 2 -i 17 -a 2 -x {1.0 4.1 4 ------- null}
h -t 1.62912 -s 3 -d 4 -p tcp -e 1040 -c 2 -i 17 -a 2 -x {1.0 4.1 -1 ------- null}
r -t 1.634448 -s 0 -d 2 -p tcp -e 1040 -c 1 -i 23 -a 1 -x {0.0 4.0 7 ------- null}
+ -t 1.634448 -s 2 -d 3 -p tcp -e 1040 -c 1 -i 23 -a 1 -x {0.0 4.0 7 ------- null}
- -t 1.63458666666667 -s 2 -d 3 -p tcp -e 1040 -c 2 -i 19 -a 2 -x {1.0 4.1 6 ------- null}
h -t 1.63458666666667 -s 2 -d 3 -p tcp -e 1040 -c 2 -i 19 -a 2 -x {1.0 4.1 -1 ------- null}
r -t 1.636112 -s 0 -d 2 -p tcp -e 1040 -c 1 -i 24 -a 1 -x {0.0 4.0 8 ------- null}
+ -t 1.636112 -s 2 -d 3 -p tcp -e 1040 -c 1 -i 24 -a 1 -x {0.0 4.0 8 ------- null}
r -t 1.63825066666667 -s 2 -d 0 -p ack -e 40 -c 1 -i 21 -a 1 -x {4.0 0.0 4 ------- null}
1.63825  0  0  4  0  cwnd_ 6.000 
+ -t 1.63825066666667 -s 0 -d 2 -p tcp -e 1040 -c 1 -i 26 -a 1 -x {0.0 4.0 9 ------- null}
- -t 1.63825066666667 -s 0 -d 2 -p tcp -e 1040 -c 1 -i 26 -a 1 -x {0.0 4.0 9 ------- null}
h -t 1.63825066666667 -s 0 -d 2 -p tcp -e 1040 -c 1 -i 26 -a 1 -x {0.0 4.0 -1 ------- null}
+ -t 1.63825066666667 -s 0 -d 2 -p tcp -e 1040 -c 1 -i 27 -a 1 -x {0.0 4.0 10 ------- null}
- -t 1.63991466666667 -s 0 -d 2 -p tcp -e 1040 -c 1 -i 27 -a 1 -x {0.0 4.0 10 ------- null}
h -t 1.63991466666667 -s 0 -d 2 -p tcp -e 1040 -c 1 -i 27 -a 1 -x {0.0 4.0 -1 ------- null}
r -t 1.64365333333333 -s 3 -d 2 -p ack -e 40 -c 1 -i 22 -a 1 -x {4.0 0.0 5 ------- null}
+ -t 1.64365333333333 -s 2 -d 0 -p ack -e 40 -c 1 -i 22 -a 1 -x {4.0 0.0 5 ------- null}
- -t 1.64365333333333 -s 2 -d 0 -p ack -e 40 -c 1 -i 22 -a 1 -x {4.0 0.0 5 ------- null}
h -t 1.64365333333333 -s 2 -d 0 -p ack -e 40 -c 1 -i 22 -a 1 -x {4.0 0.0 -1 ------- null}
r -t 1.64698666666667 -s 4 -d 3 -p ack -e 40 -c 1 -i 25 -a 1 -x {4.0 0.0 6 ------- null}
+ -t 1.64698666666667 -s 3 -d 2 -p ack -e 40 -c 1 -i 25 -a 1 -x {4.0 0.0 6 ------- null}
- -t 1.64698666666667 -s 3 -d 2 -p ack -e 40 -c 1 -i 25 -a 1 -x {4.0 0.0 6 ------- null}
h -t 1.64698666666667 -s 3 -d 2 -p ack -e 40 -c 1 -i 25 -a 1 -x {4.0 0.0 -1 ------- null}
r -t 1.65138666666667 -s 3 -d 4 -p tcp -e 1040 -c 2 -i 16 -a 2 -x {1.0 4.1 3 ------- null}
+ -t 1.65138666666667 -s 4 -d 3 -p ack -e 40 -c 2 -i 28 -a 2 -x {4.1 1.0 3 ------- null}
- -t 1.65138666666667 -s 4 -d 3 -p ack -e 40 -c 2 -i 28 -a 2 -x {4.1 1.0 3 ------- null}
h -t 1.65138666666667 -s 4 -d 3 -p ack -e 40 -c 2 -i 28 -a 2 -x {4.1 1.0 -1 ------- null}
r -t 1.68458666666667 -s 2 -d 3 -p tcp -e 1040 -c 2 -i 18 -a 2 -x {1.0 4.1 5 ------- null}
+ -t 1.68458666666667 -s 3 -d 4 -p tcp -e 1040 -c 2 -i 18 -a 2 -x {1.0 4.1 5 ------- null}
- -t 1.68458666666667 -s 3 -d 4 -p tcp -e 1040 -c 2 -i 18 -a 2 -x {1.0 4.1 5 ------- null}
h -t 1.68458666666667 -s 3 -d 4 -p tcp -e 1040 -c 2 -i 18 -a 2 -x {1.0 4.1 -1 ------- null}
r -t 1.68991466666667 -s 0 -d 2 -p tcp -e 1040 -c 1 -i 26 -a 1 -x {0.0 4.0 9 ------- null}
+ -t 1.68991466666667 -s 2 -d 3 -p tcp -e 1040 -c 1 -i 26 -a 1 -x {0.0 4.0 9 ------- null}
- -t 1.69005333333333 -s 2 -d 3 -p tcp -e 1040 -c 1 -i 23 -a 1 -x {0.0 4.0 7 ------- null}
h -t 1.69005333333333 -s 2 -d 3 -p tcp -e 1040 -c 1 -i 23 -a 1 -x {0.0 4.0 -1 ------- null}
r -t 1.69157866666667 -s 0 -d 2 -p tcp -e 1040 -c 1 -i 27 -a 1 -x {0.0 4.0 10 ------- null}
+ -t 1.69157866666667 -s 2 -d 3 -p tcp -e 1040 -c 1 -i 27 -a 1 -x {0.0 4.0 10 ------- null}
r -t 1.69371733333333 -s 2 -d 0 -p ack -e 40 -c 1 -i 22 -a 1 -x {4.0 0.0 5 ------- null}
1.69372  0  0  4  0  cwnd_ 7.000 
+ -t 1.69371733333333 -s 0 -d 2 -p tcp -e 1040 -c 1 -i 29 -a 1 -x {0.0 4.0 11 ------- null}
- -t 1.69371733333333 -s 0 -d 2 -p tcp -e 1040 -c 1 -i 29 -a 1 -x {0.0 4.0 11 ------- null}
h -t 1.69371733333333 -s 0 -d 2 -p tcp -e 1040 -c 1 -i 29 -a 1 -x {0.0 4.0 -1 ------- null}
+ -t 1.69371733333333 -s 0 -d 2 -p tcp -e 1040 -c 1 -i 30 -a 1 -x {0.0 4.0 12 ------- null}
- -t 1.69538133333333 -s 0 -d 2 -p tcp -e 1040 -c 1 -i 30 -a 1 -x {0.0 4.0 12 ------- null}
h -t 1.69538133333333 -s 0 -d 2 -p tcp -e 1040 -c 1 -i 30 -a 1 -x {0.0 4.0 -1 ------- null}
r -t 1.69912 -s 3 -d 2 -p ack -e 40 -c 1 -i 25 -a 1 -x {4.0 0.0 6 ------- null}
+ -t 1.69912 -s 2 -d 0 -p ack -e 40 -c 1 -i 25 -a 1 -x {4.0 0.0 6 ------- null}
- -t 1.69912 -s 2 -d 0 -p ack -e 40 -c 1 -i 25 -a 1 -x {4.0 0.0 6 ------- null}
h -t 1.69912 -s 2 -d 0 -p ack -e 40 -c 1 -i 25 -a 1 -x {4.0 0.0 -1 ------- null}
r -t 1.70245333333333 -s 4 -d 3 -p ack -e 40 -c 2 -i 28 -a 2 -x {4.1 1.0 3 ------- null}
+ -t 1.70245333333333 -s 3 -d 2 -p ack -e 40 -c 2 -i 28 -a 2 -x {4.1 1.0 3 ------- null}
- -t 1.70245333333333 -s 3 -d 2 -p ack -e 40 -c 2 -i 28 -a 2 -x {4.1 1.0 3 ------- null}
h -t 1.70245333333333 -s 3 -d 2 -p ack -e 40 -c 2 -i 28 -a 2 -x {4.1 1.0 -1 ------- null}
r -t 1.70685333333333 -s 3 -d 4 -p tcp -e 1040 -c 2 -i 17 -a 2 -x {1.0 4.1 4 ------- null}
+ -t 1.70685333333333 -s 4 -d 3 -p ack -e 40 -c 2 -i 31 -a 2 -x {4.1 1.0 4 ------- null}
- -t 1.70685333333333 -s 4 -d 3 -p ack -e 40 -c 2 -i 31 -a 2 -x {4.1 1.0 4 ------- null}
h -t 1.70685333333333 -s 4 -d 3 -p ack -e 40 -c 2 -i 31 -a 2 -x {4.1 1.0 -1 ------- null}
r -t 1.74005333333333 -s 2 -d 3 -p tcp -e 1040 -c 2 -i 19 -a 2 -x {1.0 4.1 6 ------- null}
+ -t 1.74005333333333 -s 3 -d 4 -p tcp -e 1040 -c 2 -i 19 -a 2 -x {1.0 4.1 6 ------- null}
- -t 1.74005333333333 -s 3 -d 4 -p tcp -e 1040 -c 2 -i 19 -a 2 -x {1.0 4.1 6 ------- null}
h -t 1.74005333333333 -s 3 -d 4 -p tcp -e 1040 -c 2 -i 19 -a 2 -x {1.0 4.1 -1 ------- null}
r -t 1.74538133333333 -s 0 -d 2 -p tcp -e 1040 -c 1 -i 29 -a 1 -x {0.0 4.0 11 ------- null}
+ -t 1.74538133333333 -s 2 -d 3 -p tcp -e 1040 -c 1 -i 29 -a 1 -x {0.0 4.0 11 ------- null}
- -t 1.74552 -s 2 -d 3 -p tcp -e 1040 -c 1 -i 24 -a 1 -x {0.0 4.0 8 ------- null}
h -t 1.74552 -s 2 -d 3 -p tcp -e 1040 -c 1 -i 24 -a 1 -x {0.0 4.0 -1 ------- null}
r -t 1.74704533333333 -s 0 -d 2 -p tcp -e 1040 -c 1 -i 30 -a 1 -x {0.0 4.0 12 ------- null}