V -t * -v 1.0a5 -a 0
A -t * -n 1 -p 0 -o 0x7fffffff -c 30 -a 1
A -t * -h 1 -m 1073741823 -s 0
c -t * -i 8 -n gold
c -t * -i 4 -n green
c -t * -i 9 -n red
c -t * -i 5 -n yellow
c -t * -i 1 -n dodgerblue
c -t * -i 6 -n black
c -t * -i 2 -n red
c -t * -i 7 -n magenta
c -t * -i 3 -n cyan
n -t * -a 8 -s 8 -S UP -v square -c black -i black
n -t * -a 4 -s 4 -S UP -v circle -c black -i black
n -t * -a 0 -s 0 -S UP -v circle -c black -i black
n -t * -a 10 -s 10 -S UP -v square -c black -i black
n -t * -a 9 -s 9 -S UP -v square -c black -i black
n -t * -a 5 -s 5 -S UP -v circle -c black -i black
n -t * -a 1 -s 1 -S UP -v circle -c black -i black
n -t * -a 6 -s 6 -S UP -v circle -c black -i black
n -t * -a 2 -s 2 -S UP -v circle -c black -i black
n -t * -a 7 -s 7 -S UP -v circle -c black -i black
n -t * -a 3 -s 3 -S UP -v circle -c black -i black
l -t * -s 8 -d 10 -S UP -r 1000000 -D 0.01 -c cyan
l -t * -s 0 -d 8 -S UP -r 1000000 -D 0.01 -c black -o down
l -t * -s 1 -d 8 -S UP -r 500000 -D 0.01 -c black -o down-right
l -t * -s 2 -d 8 -S UP -r 750000 -D 0.01 -c black -o down-left
l -t * -s 3 -d 9 -S UP -r 1000000 -D 0.01 -c black -o up
l -t * -s 4 -d 8 -S UP -r 1000000 -D 0.01 -c black -o up
l -t * -s 5 -d 8 -S UP -r 1000000 -D 0.01 -c black -o up-right
l -t * -s 6 -d 8 -S UP -r 1000000 -D 0.01 -c black -o up-left
l -t * -s 7 -d 10 -S UP -r 1000000 -D 0.01 -c black -o down
l -t * -s 8 -d 9 -S UP -r 1000000 -D 0.01 -c cyan -o down-right
l -t * -s 10 -d 9 -S UP -r 1000000 -D 0.01 -c cyan -o down-right
q -t * -s 10 -d 8 -a 0.1
q -t * -s 8 -d 10 -a 0.1
q -t * -s 8 -d 9 -a 0.1
q -t * -s 9 -d 8 -a 0.1
n -t 0 -s 0 -S DLABEL -l "CL1" -L ""
n -t 0 -s 1 -S DLABEL -l "CL2" -L ""
n -t 0 -s 2 -S DLABEL -l "CL3" -L ""
n -t 0 -s 3 -S DLABEL -l "CL4" -L ""
n -t 0 -s 4 -S DLABEL -l "RC1" -L ""
n -t 0 -s 5 -S DLABEL -l "RC2" -L ""
n -t 0 -s 6 -S DLABEL -l "RC3" -L ""
n -t 0 -s 7 -S DLABEL -l "RC4" -L ""
n -t 0 -s 8 -S DLABEL -l "ROU1" -L ""
n -t 0 -s 9 -S DLABEL -l "ROU2" -L ""
n -t 0 -s 10 -S DLABEL -l "ROU3" -L ""
+ -t 0.2 -s 0 -d 8 -p tcp -e 40 -c 1 -i 0 -a 1 -x {0.0 7.0 0 ------- null}
- -t 0.2 -s 0 -d 8 -p tcp -e 40 -c 1 -i 0 -a 1 -x {0.0 7.0 0 ------- null}
h -t 0.2 -s 0 -d 8 -p tcp -e 40 -c 1 -i 0 -a 1 -x {0.0 7.0 -1 ------- null}
r -t 0.21032 -s 0 -d 8 -p tcp -e 40 -c 1 -i 0 -a 1 -x {0.0 7.0 0 ------- null}
+ -t 0.21032 -s 8 -d 10 -p tcp -e 40 -c 1 -i 0 -a 1 -x {0.0 7.0 0 ------- null}
- -t 0.21032 -s 8 -d 10 -p tcp -e 40 -c 1 -i 0 -a 1 -x {0.0 7.0 0 ------- null}
h -t 0.21032 -s 8 -d 10 -p tcp -e 40 -c 1 -i 0 -a 1 -x {0.0 7.0 -1 ------- null}
r -t 0.22064 -s 8 -d 10 -p tcp -e 40 -c 1 -i 0 -a 1 -x {0.0 7.0 0 ------- null}
+ -t 0.22064 -s 10 -d 7 -p tcp -e 40 -c 1 -i 0 -a 1 -x {0.0 7.0 0 ------- null}
- -t 0.22064 -s 10 -d 7 -p tcp -e 40 -c 1 -i 0 -a 1 -x {0.0 7.0 0 ------- null}
h -t 0.22064 -s 10 -d 7 -p tcp -e 40 -c 1 -i 0 -a 1 -x {0.0 7.0 -1 ------- null}
r -t 0.23096 -s 10 -d 7 -p tcp -e 40 -c 1 -i 0 -a 1 -x {0.0 7.0 0 ------- null}
+ -t 0.23096 -s 7 -d 10 -p ack -e 40 -c 1 -i 1 -a 1 -x {7.0 0.0 0 ------- null}
- -t 0.23096 -s 7 -d 10 -p ack -e 40 -c 1 -i 1 -a 1 -x {7.0 0.0 0 ------- null}
h -t 0.23096 -s 7 -d 10 -p ack -e 40 -c 1 -i 1 -a 1 -x {7.0 0.0 -1 ------- null}
r -t 0.24128 -s 7 -d 10 -p ack -e 40 -c 1 -i 1 -a 1 -x {7.0 0.0 0 ------- null}
+ -t 0.24128 -s 10 -d 8 -p ack -e 40 -c 1 -i 1 -a 1 -x {7.0 0.0 0 ------- null}
- -t 0.24128 -s 10 -d 8 -p ack -e 40 -c 1 -i 1 -a 1 -x {7.0 0.0 0 ------- null}
h -t 0.24128 -s 10 -d 8 -p ack -e 40 -c 1 -i 1 -a 1 -x {7.0 0.0 -1 ------- null}
r -t 0.2516 -s 10 -d 8 -p ack -e 40 -c 1 -i 1 -a 1 -x {7.0 0.0 0 ------- null}
+ -t 0.2516 -s 8 -d 0 -p ack -e 40 -c 1 -i 1 -a 1 -x {7.0 0.0 0 ------- null}
- -t 0.2516 -s 8 -d 0 -p ack -e 40 -c 1 -i 1 -a 1 -x {7.0 0.0 0 ------- null}
h -t 0.2516 -s 8 -d 0 -p ack -e 40 -c 1 -i 1 -a 1 -x {7.0 0.0 -1 ------- null}
r -t 0.26192 -s 8 -d 0 -p ack -e 40 -c 1 -i 1 -a 1 -x {7.0 0.0 0 ------- null}
+ -t 0.26192 -s 0 -d 8 -p tcp -e 1040 -c 1 -i 2 -a 1 -x {0.0 7.0 1 ------- null}
- -t 0.26192 -s 0 -d 8 -p tcp -e 1040 -c 1 -i 2 -a 1 -x {0.0 7.0 1 ------- null}
h -t 0.26192 -s 0 -d 8 -p tcp -e 1040 -c 1 -i 2 -a 1 -x {0.0 7.0 -1 ------- null}
+ -t 0.26192 -s 0 -d 8 -p tcp -e 1040 -c 1 -i 3 -a 1 -x {0.0 7.0 2 ------- null}
- -t 0.27024 -s 0 -d 8 -p tcp -e 1040 -c 1 -i 3 -a 1 -x {0.0 7.0 2 ------- null}
h -t 0.27024 -s 0 -d 8 -p tcp -e 1040 -c 1 -i 3 -a 1 -x {0.0 7.0 -1 ------- null}
r -t 0.28024 -s 0 -d 8 -p tcp -e 1040 -c 1 -i 2 -a 1 -x {0.0 7.0 1 ------- null}
+ -t 0.28024 -s 8 -d 10 -p tcp -e 1040 -c 1 -i 2 -a 1 -x {0.0 7.0 1 ------- null}
- -t 0.28024 -s 8 -d 10 -p tcp -e 1040 -c 1 -i 2 -a 1 -x {0.0 7.0 1 ------- null}
h -t 0.28024 -s 8 -d 10 -p tcp -e 1040 -c 1 -i 2 -a 1 -x {0.0 7.0 -1 ------- null}
r -t 0.28856 -s 0 -d 8 -p tcp -e 1040 -c 1 -i 3 -a 1 -x {0.0 7.0 2 ------- null}
+ -t 0.28856 -s 8 -d 10 -p tcp -e 1040 -c 1 -i 3 -a 1 -x {0.0 7.0 2 ------- null}
- -t 0.28856 -s 8 -d 10 -p tcp -e 1040 -c 1 -i 3 -a 1 -x {0.0 7.0 2 ------- null}
h -t 0.28856 -s 8 -d 10 -p tcp -e 1040 -c 1 -i 3 -a 1 -x {0.0 7.0 -1 ------- null}
r -t 0.29856 -s 8 -d 10 -p tcp -e 1040 -c 1 -i 2 -a 1 -x {0.0 7.0 1 ------- null}
+ -t 0.29856 -s 10 -d 7 -p tcp -e 1040 -c 1 -i 2 -a 1 -x {0.0 7.0 1 ------- null}
- -t 0.29856 -s 10 -d 7 -p tcp -e 1040 -c 1 -i 2 -a 1 -x {0.0 7.0 1 ------- null}
h -t 0.29856 -s 10 -d 7 -p tcp -e 1040 -c 1 -i 2 -a 1 -x {0.0 7.0 -1 ------- null}
r -t 0.30688 -s 8 -d 10 -p tcp -e 1040 -c 1 -i 3 -a 1 -x {0.0 7.0 2 ------- null}
+ -t 0.30688 -s 10 -d 7 -p tcp -e 1040 -c 1 -i 3 -a 1 -x {0.0 7.0 2 ------- null}
- -t 0.30688 -s 10 -d 7 -p tcp -e 1040 -c 1 -i 3 -a 1 -x {0.0 7.0 2 ------- null}
h -t 0.30688 -s 10 -d 7 -p tcp -e 1040 -c 1 -i 3 -a 1 -x {0.0 7.0 -1 ------- null}
r -t 0.31688 -s 10 -d 7 -p tcp -e 1040 -c 1 -i 2 -a 1 -x {0.0 7.0 1 ------- null}
+ -t 0.31688 -s 7 -d 10 -p ack -e 40 -c 1 -i 4 -a 1 -x {7.0 0.0 1 ------- null}
- -t 0.31688 -s 7 -d 10 -p ack -e 40 -c 1 -i 4 -a 1 -x {7.0 0.0 1 ------- null}
h -t 0.31688 -s 7 -d 10 -p ack -e 40 -c 1 -i 4 -a 1 -x {7.0 0.0 -1 ------- null}
r -t 0.3252 -s 10 -d 7 -p tcp -e 1040 -c 1 -i 3 -a 1 -x {0.0 7.0 2 ------- null}
+ -t 0.3252 -s 7 -d 10 -p ack -e 40 -c 1 -i 5 -a 1 -x {7.0 0.0 2 ------- null}
- -t 0.3252 -s 7 -d 10 -p ack -e 40 -c 1 -i 5 -a 1 -x {7.0 0.0 2 ------- null}
h -t 0.3252 -s 7 -d 10 -p ack -e 40 -c 1 -i 5 -a 1 -x {7.0 0.0 -1 ------- null}
r -t 0.3272 -s 7 -d 10 -p ack -e 40 -c 1 -i 4 -a 1 -x {7.0 0.0 1 ------- null}
+ -t 0.3272 -s 10 -d 8 -p ack -e 40 -c 1 -i 4 -a 1 -x {7.0 0.0 1 ------- null}
- -t 0.3272 -s 10 -d 8 -p ack -e 40 -c 1 -i 4 -a 1 -x {7.0 0.0 1 ------- null}
h -t 0.3272 -s 10 -d 8 -p ack -e 40 -c 1 -i 4 -a 1 -x {7.0 0.0 -1 ------- null}
r -t 0.33552 -s 7 -d 10 -p ack -e 40 -c 1 -i 5 -a 1 -x {7.0 0.0 2 ------- null}
+ -t 0.33552 -s 10 -d 8 -p ack -e 40 -c 1 -i 5 -a 1 -x {7.0 0.0 2 ------- null}
- -t 0.33552 -s 10 -d 8 -p ack -e 40 -c 1 -i 5 -a 1 -x {7.0 0.0 2 ------- null}
h -t 0.33552 -s 10 -d 8 -p ack -e 40 -c 1 -i 5 -a 1 -x {7.0 0.0 -1 ------- null}
r -t 0.33752 -s 10 -d 8 -p ack -e 40 -c 1 -i 4 -a 1 -x {7.0 0.0 1 ------- null}
+ -t 0.33752 -s 8 -d 0 -p ack -e 40 -c 1 -i 4 -a 1 -x {7.0 0.0 1 ------- null}
- -t 0.33752 -s 8 -d 0 -p ack -e 40 -c 1 -i 4 -a 1 -x {7.0 0.0 1 ------- null}
h -t 0.33752 -s 8 -d 0 -p ack -e 40 -c 1 -i 4 -a 1 -x {7.0 0.0 -1 ------- null}
r -t 0.34584 -s 10 -d 8 -p ack -e 40 -c 1 -i 5 -a 1 -x {7.0 0.0 2 ------- null}
+ -t 0.34584 -s 8 -d 0 -p ack -e 40 -c 1 -i 5 -a 1 -x {7.0 0.0 2 ------- null}
- -t 0.34584 -s 8 -d 0 -p ack -e 40 -c 1 -i 5 -a 1 -x {7.0 0.0 2 ------- null}
h -t 0.34584 -s 8 -d 0 -p ack -e 40 -c 1 -i 5 -a 1 -x {7.0 0.0 -1 ------- null}
r -t 0.34784 -s 8 -d 0 -p ack -e 40 -c 1 -i 4 -a 1 -x {7.0 0.0 1 ------- null}
+ -t 0.34784 -s 0 -d 8 -p tcp -e 1040 -c 1 -i 6 -a 1 -x {0.0 7.0 3 ------- null}
- -t 0.34784 -s 0 -d 8 -p tcp -e 1040 -c 1 -i 6 -a 1 -x {0.0 7.0 3 ------- null}
h -t 0.34784 -s 0 -d 8 -p tcp -e 1040 -c 1 -i 6 -a 1 -x {0.0 7.0 -1 ------- null}
+ -t 0.34784 -s 0 -d 8 -p tcp -e 1040 -c 1 -i 7 -a 1 -x {0.0 7.0 4 ------- null}
r -t 0.35616 -s 8 -d 0 -p ack -e 40 -c 1 -i 5 -a 1 -x {7.0 0.0 2 ------- null}
+ -t 0.35616 -s 0 -d 8 -p tcp -e 1040 -c 1 -i 8 -a 1 -x {0.0 7.0 5 ------- null}
+ -t 0.35616 -s 0 -d 8 -p tcp -e 1040 -c 1 -i 9 -a 1 -x {0.0 7.0 6 ------- null}
- -t 0.35616 -s 0 -d 8 -p tcp -e 1040 -c 1 -i 7 -a 1 -x {0.0 7.0 4 ------- null}
h -t 0.35616 -s 0 -d 8 -p tcp -e 1040 -c 1 -i 7 -a 1 -x {0.0 7.0 -1 ------- null}
- -t 0.36448 -s 0 -d 8 -p tcp -e 1040 -c 1 -i 8 -a 1 -x {0.0 7.0 5 ------- null}
h -t 0.36448 -s 0 -d 8 -p tcp -e 1040 -c 1 -i 8 -a 1 -x {0.0 7.0 -1 ------- null}
r -t 0.36616 -s 0 -d 8 -p tcp -e 1040 -c 1 -i 6 -a 1 -x {0.0 7.0 3 ------- null}
+ -t 0.36616 -s 8 -d 10 -p tcp -e 1040 -c 1 -i 6 -a 1 -x {0.0 7.0 3 ------- null}
- -t 0.36616 -s 8 -d 10 -p tcp -e 1040 -c 1 -i 6 -a 1 -x {0.0 7.0 3 ------- null}
h -t 0.36616 -s 8 -d 10 -p tcp -e 1040 -c 1 -i 6 -a 1 -x {0.0 7.0 -1 ------- null}
- -t 0.3728 -s 0 -d 8 -p tcp -e 1040 -c 1 -i 9 -a 1 -x {0.0 7.0 6 ------- null}
h -t 0.3728 -s 0 -d 8 -p tcp -e 1040 -c 1 -i 9 -a 1 -x {0.0 7.0 -1 ------- null}
r -t 0.37448 -s 0 -d 8 -p tcp -e 1040 -c 1 -i 7 -a 1 -x {0.0 7.0 4 ------- null}
+ -t 0.37448 -s 8 -d 10 -p tcp -e 1040 -c 1 -i 7 -a 1 -x {0.0 7.0 4 ------- null}
- -t 0.37448 -s 8 -d 10 -p tcp -e 1040 -c 1 -i 7 -a 1 -x {0.0 7.0 4 ------- null}
h -t 0.37448 -s 8 -d 10 -p tcp -e 1040 -c 1 -i 7 -a 1 -x {0.0 7.0 -1 ------- null}
r -t 0.3828 -s 0 -d 8 -p tcp -e 1040 -c 1 -i 8 -a 1 -x {0.0 7.0 5 ------- null}
+ -t 0.3828 -s 8 -d 10 -p tcp -e 1040 -c 1 -i 8 -a 1 -x {0.0 7.0 5 ------- null}
- -t 0.3828 -s 8 -d 10 -p tcp -e 1040 -c 1 -i 8 -a 1 -x {0.0 7.0 5 ------- null}
h -t 0.3828 -s 8 -d 10 -p tcp -e 1040 -c 1 -i 8 -a 1 -x {0.0 7.0 -1 ------- null}
r -t 0.38448 -s 8 -d 10 -p tcp -e 1040 -c 1 -i 6 -a 1 -x {0.0 7.0 3 ------- null}
+ -t 0.38448 -s 10 -d 7 -p tcp -e 1040 -c 1 -i 6 -a 1 -x {0.0 7.0 3 ------- null}
- -t 0.38448 -s 10 -d 7 -p tcp -e 1040 -c 1 -i 6 -a 1 -x {0.0 7.0 3 ------- null}
h -t 0.38448 -s 10 -d 7 -p tcp -e 1040 -c 1 -i 6 -a 1 -x {0.0 7.0 -1 ------- null}
r -t 0.39112 -s 0 -d 8 -p tcp -e 1040 -c 1 -i 9 -a 1 -x {0.0 7.0 6 ------- null}
+ -t 0.39112 -s 8 -d 10 -p tcp -e 1040 -c 1 -i 9 -a 1 -x {0.0 7.0 6 ------- null}
- -t 0.39112 -s 8 -d 10 -p tcp -e 1040 -c 1 -i 9 -a 1 -x {0.0 7.0 6 ------- null}
h -t 0.39112 -s 8 -d 10 -p tcp -e 1040 -c 1 -i 9 -a 1 -x {0.0 7.0 -1 ------- null}
r -t 0.3928 -s 8 -d 10 -p tcp -e 1040 -c 1 -i 7 -a 1 -x {0.0 7.0 4 ------- null}
+ -t 0.3928 -s 10 -d 7 -p tcp -e 1040 -c 1 -i 7 -a 1 -x {0.0 7.0 4 ------- null}
- -t 0.3928 -s 10 -d 7 -p tcp -e 1040 -c 1 -i 7 -a 1 -x {0.0 7.0 4 ------- null}
h -t 0.3928 -s 10 -d 7 -p tcp -e 1040 -c 1 -i 7 -a 1 -x {0.0 7.0 -1 ------- null}
r -t 0.40112 -s 8 -d 10 -p tcp -e 1040 -c 1 -i 8 -a 1 -x {0.0 7.0 5 ------- null}
+ -t 0.40112 -s 10 -d 7 -p tcp -e 1040 -c 1 -i 8 -a 1 -x {0.0 7.0 5 ------- null}
- -t 0.40112 -s 10 -d 7 -p tcp -e 1040 -c 1 -i 8 -a 1 -x {0.0 7.0 5 ------- null}
h -t 0.40112 -s 10 -d 7 -p tcp -e 1040 -c 1 -i 8 -a 1 -x {0.0 7.0 -1 ------- null}
r -t 0.4028 -s 10 -d 7 -p tcp -e 1040 -c 1 -i 6 -a 1 -x {0.0 7.0 3 ------- null}
+ -t 0.4028 -s 7 -d 10 -p ack -e 40 -c 1 -i 10 -a 1 -x {7.0 0.0 3 ------- null}
- -t 0.4028 -s 7 -d 10 -p ack -e 40 -c 1 -i 10 -a 1 -x {7.0 0.0 3 ------- null}
h -t 0.4028 -s 7 -d 10 -p ack -e 40 -c 1 -i 10 -a 1 -x {7.0 0.0 -1 ------- null}
r -t 0.40944 -s 8 -d 10 -p tcp -e 1040 -c 1 -i 9 -a 1 -x {0.0 7.0 6 ------- null}
+ -t 0.40944 -s 10 -d 7 -p tcp -e 1040 -c 1 -i 9 -a 1 -x {0.0 7.0 6 ------- null}
- -t 0.40944 -s 10 -d 7 -p tcp -e 1040 -c 1 -i 9 -a 1 -x {0.0 7.0 6 ------- null}
h -t 0.40944 -s 10 -d 7 -p tcp -e 1040 -c 1 -i 9 -a 1 -x {0.0 7.0 -1 ------- null}
r -t 0.41112 -s 10 -d 7 -p tcp -e 1040 -c 1 -i 7 -a 1 -x {0.0 7.0 4 ------- null}
+ -t 0.41112 -s 7 -d 10 -p ack -e 40 -c 1 -i 11 -a 1 -x {7.0 0.0 4 ------- null}
- -t 0.41112 -s 7 -d 10 -p ack -e 40 -c 1 -i 11 -a 1 -x {7.0 0.0 4 ------- null}
h -t 0.41112 -s 7 -d 10 -p ack -e 40 -c 1 -i 11 -a 1 -x {7.0 0.0 -1 ------- null}
r -t 0.41312 -s 7 -d 10 -p ack -e 40 -c 1 -i 10 -a 1 -x {7.0 0.0 3 ------- null}
+ -t 0.41312 -s 10 -d 8 -p ack -e 40 -c 1 -i 10 -a 1 -x {7.0 0.0 3 ------- null}
- -t 0.41312 -s 10 -d 8 -p ack -e 40 -c 1 -i 10 -a 1 -x {7.0 0.0 3 ------- null}
h -t 0.41312 -s 10 -d 8 -p ack -e 40 -c 1 -i 10 -a 1 -x {7.0 0.0 -1 ------- null}
r -t 0.41944 -s 10 -d 7 -p tcp -e 1040 -c 1 -i 8 -a 1 -x {0.0 7.0 5 ------- null}
+ -t 0.41944 -s 7 -d 10 -p ack -e 40 -c 1 -i 12 -a 1 -x {7.0 0.0 5 ------- null}
- -t 0.41944 -s 7 -d 10 -p ack -e 40 -c 1 -i 12 -a 1 -x {7.0 0.0 5 ------- null}
h -t 0.41944 -s 7 -d 10 -p ack -e 40 -c 1 -i 12 -a 1 -x {7.0 0.0 -1 ------- null}
r -t 0.42144 -s 7 -d 10 -p ack -e 40 -c 1 -i 11 -a 1 -x {7.0 0.0 4 ------- null}
+ -t 0.42144 -s 10 -d 8 -p ack -e 40 -c 1 -i 11 -a 1 -x {7.0 0.0 4 ------- null}
- -t 0.42144 -s 10 -d 8 -p ack -e 40 -c 1 -i 11 -a 1 -x {7.0 0.0 4 ------- null}
h -t 0.42144 -s 10 -d 8 -p ack -e 40 -c 1 -i 11 -a 1 -x {7.0 0.0 -1 ------- null}
r -t 0.42344 -s 10 -d 8 -p ack -e 40 -c 1 -i 10 -a 1 -x {7.0 0.0 3 ------- null}
+ -t 0.42344 -s 8 -d 0 -p ack -e 40 -c 1 -i 10 -a 1 -x {7.0 0.0 3 ------- null}
- -t 0.42344 -s 8 -d 0 -p ack -e 40 -c 1 -i 10 -a 1 -x {7.0 0.0 3 ------- null}
h -t 0.42344 -s 8 -d 0 -p ack -e 40 -c 1 -i 10 -a 1 -x {7.0 0.0 -1 ------- null}
r -t 0.42776 -s 10 -d 7 -p tcp -e 1040 -c 1 -i 9 -a 1 -x {0.0 7.0 6 ------- null}
+ -t 0.42776 -s 7 -d 10 -p ack -e 40 -c 1 -i 13 -a 1 -x {7.0 0.0 6 ------- null}
- -t 0.42776 -s 7 -d 10 -p ack -e 40 -c 1 -i 13 -a 1 -x {7.0 0.0 6 ------- null}
h -t 0.42776 -s 7 -d 10 -p ack -e 40 -c 1 -i 13 -a 1 -x {7.0 0.0 -1 ------- null}
r -t 0.42976 -s 7 -d 10 -p ack -e 40 -c 1 -i 12 -a 1 -x {7.0 0.0 5 ------- null}
+ -t 0.42976 -s 10 -d 8 -p ack -e 40 -c 1 -i 12 -a 1 -x {7.0 0.0 5 ------- null}
- -t 0.42976 -s 10 -d 8 -p ack -e 40 -c 1 -i 12 -a 1 -x {7.0 0.0 5 ------- null}
h -t 0.42976 -s 10 -d 8 -p ack -e 40 -c 1 -i 12 -a 1 -x {7.0 0.0 -1 ------- null}
r -t 0.43176 -s 10 -d 8 -p ack -e 40 -c 1 -i 11 -a 1 -x {7.0 0.0 4 ------- null}
+ -t 0.43176 -s 8 -d 0 -p ack -e 40 -c 1 -i 11 -a 1 -x {7.0 0.0 4 ------- null}
- -t 0.43176 -s 8 -d 0 -p ack -e 40 -c 1 -i 11 -a 1 -x {7.0 0.0 4 ------- null}
h -t 0.43176 -s 8 -d 0 -p ack -e 40 -c 1 -i 11 -a 1 -x {7.0 0.0 -1 ------- null}
r -t 0.43376 -s 8 -d 0 -p ack -e 40 -c 1 -i 10 -a 1 -x {7.0 0.0 3 ------- null}
+ -t 0.43376 -s 0 -d 8 -p tcp -e 1040 -c 1 -i 14 -a 1 -x {0.0 7.0 7 ------- null}
- -t 0.43376 -s 0 -d 8 -p tcp -e 1040 -c 1 -i 14 -a 1 -x {0.0 7.0 7 ------- null}
h -t 0.43376 -s 0 -d 8 -p tcp -e 1040 -c 1 -i 14 -a 1 -x {0.0 7.0 -1 ------- null}
+ -t 0.43376 -s 0 -d 8 -p tcp -e 1040 -c 1 -i 15 -a 1 -x {0.0 7.0 8 ------- null}
r -t 0.43808 -s 7 -d 10 -p ack -e 40 -c 1 -i 13 -a 1 -x {7.0 0.0 6 ------- null}
+ -t 0.43808 -s 10 -d 8 -p ack -e 40 -c 1 -i 13 -a 1 -x {7.0 0.0 6 ------- null}
- -t 0.43808 -s 10 -d 8 -p ack -e 40 -c 1 -i 13 -a 1 -x {7.0 0.0 6 ------- null}
h -t 0.43808 -s 10 -d 8 -p ack -e 40 -c 1 -i 13 -a 1 -x {7.0 0.0 -1 ------- null}
r -t 0.44008 -s 10 -d 8 -p ack -e 40 -c 1 -i 12 -a 1 -x {7.0 0.0 5 ------- null}
+ -t 0.44008 -s 8 -d 0 -p ack -e 40 -c 1 -i 12 -a 1 -x {7.0 0.0 5 ------- null}
- -t 0.44008 -s 8 -d 0 -p ack -e 40 -c 1 -i 12 -a 1 -x {7.0 0.0 5 ------- null}
h -t 0.44008 -s 8 -d 0 -p ack -e 40 -c 1 -i 12 -a 1 -x {7.0 0.0 -1 ------- null}
r -t 0.44208 -s 8 -d 0 -p ack -e 40 -c 1 -i 11 -a 1 -x {7.0 0.0 4 ------- null}
+ -t 0.44208 -s 0 -d 8 -p tcp -e 1040 -c 1 -i 16 -a 1 -x {0.0 7.0 9 ------- null}
+ -t 0.44208 -s 0 -d 8 -p tcp -e 1040 -c 1 -i 17 -a 1 -x {0.0 7.0 10 ------- null}
- -t 0.44208 -s 0 -d 8 -p tcp -e 1040 -c 1 -i 15 -a 1 -x {0.0 7.0 8 ------- null}
h -t 0.44208 -s 0 -d 8 -p tcp -e 1040 -c 1 -i 15 -a 1 -x {0.0 7.0 -1 ------- null}
r -t 0.4484 -s 10 -d 8 -p ack -e 40 -c 1 -i 13 -a 1 -x {7.0 0.0 6 ------- null}
+ -t 0.4484 -s 8 -d 0 -p ack -e 40 -c 1 -i 13 -a 1 -x {7.0 0.0 6 ------- null}
- -t 0.4484 -s 8 -d 0 -p ack -e 40 -c 1 -i 13 -a 1 -x {7.0 0.0 6 ------- null}
h -t 0.4484 -s 8 -d 0 -p ack -e 40 -c 1 -i 13 -a 1 -x {7.0 0.0 -1 ------- null}
r -t 0.4504 -s 8 -d 0 -p ack -e 40 -c 1 -i 12 -a 1 -x {7.0 0.0 5 ------- null}
+ -t 0.4504 -s 0 -d 8 -p tcp -e 1040 -c 1 -i 18 -a 1 -x {0.0 7.0 11 ------- null}
+ -t 0.4504 -s 0 -d 8 -p tcp -e 1040 -c 1 -i 19 -a 1 -x {0.0 7.0 12 ------- null}
- -t 0.4504 -s 0 -d 8 -p tcp -e 1040 -c 1 -i 16 -a 1 -x {0.0 7.0 9 ------- null}
h -t 0.4504 -s 0 -d 8 -p tcp -e 1040 -c 1 -i 16 -a 1 -x {0.0 7.0 -1 ------- null}
r -t 0.45208 -s 0 -d 8 -p tcp -e 1040 -c 1 -i 14 -a 1 -x {0.0 7.0 7 ------- null}
+ -t 0.45208 -s 8 -d 10 -p tcp -e 1040 -c 1 -i 14 -a 1 -x {0.0 7.0 7 ------- null}
- -t 0.45208 -s 8 -d 10 -p tcp -e 1040 -c 1 -i 14 -a 1 -x {0.0 7.0 7 ------- null}
h -t 0.45208 -s 8 -d 10 -p tcp -e 1040 -c 1 -i 14 -a 1 -x {0.0 7.0 -1 ------- null}
r -t 0.45872 -s 8 -d 0 -p ack -e 40 -c 1 -i 13 -a 1 -x {7.0 0.0 6 ------- null}
+ -t 0.45872 -s 0 -d 8 -p tcp -e 1040 -c 1 -i 20 -a 1 -x {0.0 7.0 13 ------- null}
+ -t 0.45872 -s 0 -d 8 -p tcp -e 1040 -c 1 -i 21 -a 1 -x {0.0 7.0 14 ------- null}
- -t 0.45872 -s 0 -d 8 -p tcp -e 1040 -c 1 -i 17 -a 1 -x {0.0 7.0 10 ------- null}
h -t 0.45872 -s 0 -d 8 -p tcp -e 1040 -c 1 -i 17 -a 1 -x {0.0 7.0 -1 ------- null}
r -t 0.4604 -s 0 -d 8 -p tcp -e 1040 -c 1 -i 15 -a 1 -x {0.0 7.0 8 ------- null}
+ -t 0.4604 -s 8 -d 10 -p tcp -e 1040 -c 1 -i 15 -a 1 -x {0.0 7.0 8 ------- null}
- -t 0.4604 -s 8 -d 10 -p tcp -e 1040 -c 1 -i 15 -a 1 -x {0.0 7.0 8 ------- null}
h -t 0.4604 -s 8 -d 10 -p tcp -e 1040 -c 1 -i 15 -a 1 -x {0.0 7.0 -1 ------- null}
- -t 0.46704 -s 0 -d 8 -p tcp -e 1040 -c 1 -i 18 -a 1 -x {0.0 7.0 11 ------- null}
h -t 0.46704 -s 0 -d 8 -p tcp -e 1040 -c 1 -i 18 -a 1 -x {0.0 7.0 -1 ------- null}
r -t 0.46872 -s 0 -d 8 -p tcp -e 1040 -c 1 -i 16 -a 1 -x {0.0 7.0 9 ------- null}
+ -t 0.46872 -s 8 -d 10 -p tcp -e 1040 -c 1 -i 16 -a 1 -x {0.0 7.0 9 ------- null}
- -t 0.46872 -s 8 -d 10 -p tcp -e 1040 -c 1 -i 16 -a 1 -x {0.0 7.0 9 ------- null}
h -t 0.46872 -s 8 -d 10 -p tcp -e 1040 -c 1 -i 16 -a 1 -x {0.0 7.0 -1 ------- null}
r -t 0.4704 -s 8 -d 10 -p tcp -e 1040 -c 1 -i 14 -a 1 -x {0.0 7.0 7 ------- null}
+ -t 0.4704 -s 10 -d 7 -p tcp -e 1040 -c 1 -i 14 -a 1 -x {0.0 7.0 7 ------- null}
- -t 0.4704 -s 10 -d 7 -p tcp -e 1040 -c 1 -i 14 -a 1 -x {0.0 7.0 7 ------- null}
h -t 0.4704 -s 10 -d 7 -p tcp -e 1040 -c 1 -i 14 -a 1 -x {0.0 7.0 -1 ------- null}
- -t 0.47536 -s 0 -d 8 -p tcp -e 1040 -c 1 -i 19 -a 1 -x {0.0 7.0 12 ------- null}
h -t 0.47536 -s 0 -d 8 -p tcp -e 1040 -c 1 -i 19 -a 1 -x {0.0 7.0 -1 ------- null}
r -t 0.47704 -s 0 -d 8 -p tcp -e 1040 -c 1 -i 17 -a 1 -x {0.0 7.0 10 ------- null}
+ -t 0.47704 -s 8 -d 10 -p tcp -e 1040 -c 1 -i 17 -a 1 -x {0.0 7.0 10 ------- null}
- -t 0.47704 -s 8 -d 10 -p tcp -e 1040 -c 1 -i 17 -a 1 -x {0.0 7.0 10 ------- null}
h -t 0.47704 -s 8 -d 10 -p tcp -e 1040 -c 1 -i 17 -a 1 -x {0.0 7.0 -1 ------- null}
r -t 0.47872 -s 8 -d 10 -p tcp -e 1040 -c 1 -i 15 -a 1 -x {0.0 7.0 8 ------- null}
+ -t 0.47872 -s 10 -d 7 -p tcp -e 1040 -c 1 -i 15 -a 1 -x {0.0 7.0 8 ------- null}
- -t 0.47872 -s 10 -d 7 -p tcp -e 1040 -c 1 -i 15 -a 1 -x {0.0 7.0 8 ------- null}
h -t 0.47872 -s 10 -d 7 -p tcp -e 1040 -c 1 -i 15 -a 1 -x {0.0 7.0 -1 ------- null}
- -t 0.48368 -s 0 -d 8 -p tcp -e 1040 -c 1 -i 20 -a 1 -x {0.0 7.0 13 ------- null}
h -t 0.48368 -s 0 -d 8 -p tcp -e 1040 -c 1 -i 20 -a 1 -x {0.0 7.0 -1 ------- null}
r -t 0.48536 -s 0 -d 8 -p tcp -e 1040 -c 1 -i 18 -a 1 -x {0.0 7.0 11 ------- null}
+ -t 0.48536 -s 8 -d 10 -p tcp -e 1040 -c 1 -i 18 -a 1 -x {0.0 7.0 11 ------- null}
- -t 0.48536 -s 8 -d 10 -p tcp -e 1040 -c 1 -i 18 -a 1 -x {0.0 7.0 11 ------- null}
h -t 0.48536 -s 8 -d 10 -p tcp -e 1040 -c 1 -i 18 -a 1 -x {0.0 7.0 -1 ------- null}
r -t 0.48704 -s 8 -d 10 -p tcp -e 1040 -c 1 -i 16 -a 1 -x {0.0 7.0 9 ------- null}
+ -t 0.48704 -s 10 -d 7 -p tcp -e 1040 -c 1 -i 16 -a 1 -x {0.0 7.0 9 ------- null}
- -t 0.48704 -s 10 -d 7 -p tcp -e 1040 -c 1 -i 16 -a 1 -x {0.0 7.0 9 ------- null}
h -t 0.48704 -s 10 -d 7 -p tcp -e 1040 -c 1 -i 16 -a 1 -x {0.0 7.0 -1 ------- null}
r -t 0.48872 -s 10 -d 7 -p tcp -e 1040 -c 1 -i 14 -a 1 -x {0.0 7.0 7 ------- null}
+ -t 0.48872 -s 7 -d 10 -p ack -e 40 -c 1 -i 22 -a 1 -x {7.0 0.0 7 ------- null}
- -t 0.48872 -s 7 -d 10 -p ack -e 40 -c 1 -i 22 -a 1 -x {7.0 0.0 7 ------- null}
h -t 0.48872 -s 7 -d 10 -p ack -e 40 -c 1 -i 22 -a 1 -x {7.0 0.0 -1 ------- null}
- -t 0.492 -s 0 -d 8 -p tcp -e 1040 -c 1 -i 21 -a 1 -x {0.0 7.0 14 ------- null}
h -t 0.492 -s 0 -d 8 -p tcp -e 1040 -c 1 -i 21 -a 1 -x {0.0 7.0 -1 ------- null}
r -t 0.49368 -s 0 -d 8 -p tcp -e 1040 -c 1 -i 19 -a 1 -x {0.0 7.0 12 ------- null}
+ -t 0.49368 -s 8 -d 10 -p tcp -e 1040 -c 1 -i 19 -a 1 -x {0.0 7.0 12 ------- null}
- -t 0.49368 -s 8 -d 10 -p tcp -e 1040 -c 1 -i 19 -a 1 -x {0.0 7.0 12 ------- null}
h -t 0.49368 -s 8 -d 10 -p tcp -e 1040 -c 1 -i 19 -a 1 -x {0.0 7.0 -1 ------- null}
r -t 0.49536 -s 8 -d 10 -p tcp -e 1040 -c 1 -i 17 -a 1 -x {0.0 7.0 10 ------- null}
+ -t 0.49536 -s 10 -d 7 -p tcp -e 1040 -c 1 -i 17 -a 1 -x {0.0 7.0 10 ------- null}
- -t 0.49536 -s 10 -d 7 -p tcp -e 1040 -c 1 -i 17 -a 1 -x {0.0 7.0 10 ------- null}
h -t 0.49536 -s 10 -d 7 -p tcp -e 1040 -c 1 -i 17 -a 1 -x {0.0 7.0 -1 ------- null}
r -t 0.49704 -s 10 -d 7 -p tcp -e 1040 -c 1 -i 15 -a 1 -x {0.0 7.0 8 ------- null}
+ -t 0.49704 -s 7 -d 10 -p ack -e 40 -c 1 -i 23 -a 1 -x {7.0 0.0 8 ------- null}
- -t 0.49704 -s 7 -d 10 -p ack -e 40 -c 1 -i 23 -a 1 -x {7.0 0.0 8 ------- null}
h -t 0.49704 -s 7 -d 10 -p ack -e 40 -c 1 -i 23 -a 1 -x {7.0 0.0 -1 ------- null}
r -t 0.49904 -s 7 -d 10 -p ack -e 40 -c 1 -i 22 -a 1 -x {7.0 0.0 7 ------- null}
+ -t 0.49904 -s 10 -d 8 -p ack -e 40 -c 1 -i 22 -a 1 -x {7.0 0.0 7 ------- null}
- -t 0.49904 -s 10 -d 8 -p ack -e 40 -c 1 -i 22 -a 1 -x {7.0 0.0 7 ------- null}
h -t 0.49904 -s 10 -d 8 -p ack -e 40 -c 1 -i 22 -a 1 -x {7.0 0.0 -1 ------- null}
r -t 0.502 -s 0 -d 8 -p tcp -e 1040 -c 1 -i 20 -a 1 -x {0.0 7.0 13 ------- null}
+ -t 0.502 -s 8 -d 10 -p tcp -e 1040 -c 1 -i 20 -a 1 -x {0.0 7.0 13 ------- null}
- -t 0.502 -s 8 -d 10 -p tcp -e 1040 -c 1 -i 20 -a 1 -x {0.0 7.0 13 ------- null}
h -t 0.502 -s 8 -d 10 -p tcp -e 1040 -c 1 -i 20 -a 1 -x {0.0 7.0 -1 ------- null}
r -t 0.50368 -s 8 -d 10 -p tcp -e 1040 -c 1 -i 18 -a 1 -x {0.0 7.0 11 ------- null}
+ -t 0.50368 -s 10 -d 7 -p tcp -e 1040 -c 1 -i 18 -a 1 -x {0.0 7.0 11 ------- null}
- -t 0.50368 -s 10 -d 7 -p tcp -e 1040 -c 1 -i 18 -a 1 -x {0.0 7.0 11 ------- null}
h -t 0.50368 -s 10 -d 7 -p tcp -e 1040 -c 1 -i 18 -a 1 -x {0.0 7.0 -1 ------- null}
r -t 0.50536 -s 10 -d 7 -p tcp -e 1040 -c 1 -i 16 -a 1 -x {0.0 7.0 9 ------- null}
+ -t 0.50536 -s 7 -d 10 -p ack -e 40 -c 1 -i 24 -a 1 -x {7.0 0.0 9 ------- null}
- -t 0.50536 -s 7 -d 10 -p ack -e 40 -c 1 -i 24 -a 1 -x {7.0 0.0 9 ------- null}
h -t 0.50536 -s 7 -d 10 -p ack -e 40 -c 1 -i 24 -a 1 -x {7.0 0.0 -1 ------- null}
r -t 0.50736 -s 7 -d 10 -p ack -e 40 -c 1 -i 23 -a 1 -x {7.0 0.0 8 ------- null}
+ -t 0.50736 -s 10 -d 8 -p ack -e 40 -c 1 -i 23 -a 1 -x {7.0 0.0 8 ------- null}
- -t 0.50736 -s 10 -d 8 -p ack -e 40 -c 1 -i 23 -a 1 -x {7.0 0.0 8 ------- null}
h -t 0.50736 -s 10 -d 8 -p ack -e 40 -c 1 -i 23 -a 1 -x {7.0 0.0 -1 ------- null}
r -t 0.50936 -s 10 -d 8 -p ack -e 40 -c 1 -i 22 -a 1 -x {7.0 0.0 7 ------- null}
+ -t 0.50936 -s 8 -d 0 -p ack -e 40 -c 1 -i 22 -a 1 -x {7.0 0.0 7 ------- null}
- -t 0.50936 -s 8 -d 0 -p ack -e 40 -c 1 -i 22 -a 1 -x {7.0 0.0 7 ------- null}
h -t 0.50936 -s 8 -d 0 -p ack -e 40 -c 1 -i 22 -a 1 -x {7.0 0.0 -1 ------- null}
r -t 0.51032 -s 0 -d 8 -p tcp -e 1040 -c 1 -i 21 -a 1 -x {0.0 7.0 14 ------- null}
+ -t 0.51032 -s 8 -d 10 -p tcp -e 1040 -c 1 -i 21 -a 1 -x {0.0 7.0 14 ------- null}
- -t 0.51032 -s 8 -d 10 -p tcp -e 1040 -c 1 -i 21 -a 1 -x {0.0 7.0 14 ------- null}
h -t 0.51032 -s 8 -d 10 -p tcp -e 1040 -c 1 -i 21 -a 1 -x {0.0 7.0 -1 ------- null}
r -t 0.512 -s 8 -d 10 -p tcp -e 1040 -c 1 -i 19 -a 1 -x {0.0 7.0 12 ------- null}
+ -t 0.512 -s 10 -d 7 -p tcp -e 1040 -c 1 -i 19 -a 1 -x {0.0 7.0 12 ------- null}
- -t 0.512 -s 10 -d 7 -p tcp -e 1040 -c 1 -i 19 -a 1 -x {0.0 7.0 12 ------- null}
h -t 0.512 -s 10 -d 7 -p tcp -e 1040 -c 1 -i 19 -a 1 -x {0.0 7.0 -1 ------- null}
r -t 0.51368 -s 10 -d 7 -p tcp -e 1040 -c 1 -i 17 -a 1 -x {0.0 7.0 10 ------- null}
+ -t 0.51368 -s 7 -d 10 -p ack -e 40 -c 1 -i 25 -a 1 -x {7.0 0.0 10 ------- null}
- -t 0.51368 -s 7 -d 10 -p ack -e 40 -c 1 -i 25 -a 1 -x {7.0 0.0 10 ------- null}
h -t 0.51368 -s 7 -d 10 -p ack -e 40 -c 1 -i 25 -a 1 -x {7.0 0.0 -1 ------- null}
r -t 0.51568 -s 7 -d 10 -p ack -e 40 -c 1 -i 24 -a 1 -x {7.0 0.0 9 ------- null}
+ -t 0.51568 -s 10 -d 8 -p ack -e 40 -c 1 -i 24 -a 1 -x {7.0 0.0 9 ------- null}
- -t 0.51568 -s 10 -d 8 -p ack -e 40 -c 1 -i 24 -a 1 -x {7.0 0.0 9 ------- null}
h -t 0.51568 -s 10 -d 8 -p ack -e 40 -c 1 -i 24 -a 1 -x {7.0 0.0 -1 ------- null}
r -t 0.51768 -s 10 -d 8 -p ack -e 40 -c 1 -i 23 -a 1 -x {7.0 0.0 8 ------- null}
+ -t 0.51768 -s 8 -d 0 -p ack -e 40 -c 1 -i 23 -a 1 -x {7.0 0.0 8 ------- null}
- -t 0.51768 -s 8 -d 0 -p ack -e 40 -c 1 -i 23 -a 1 -x {7.0 0.0 8 ------- null}
h -t 0.51768 -s 8 -d 0 -p ack -e 40 -c 1 -i 23 -a 1 -x {7.0 0.0 -1 ------- null}
r -t 0.51968 -s 8 -d 0 -p ack -e 40 -c 1 -i 22 -a 1 -x {7.0 0.0 7 ------- null}
+ -t 0.51968 -s 0 -d 8 -p tcp -e 1040 -c 1 -i 26 -a 1 -x {0.0 7.0 15 ------- null}
- -t 0.51968 -s 0 -d 8 -p tcp -e 1040 -c 1 -i 26 -a 1 -x {0.0 7.0 15 ------- null}
h -t 0.51968 -s 0 -d 8 -p tcp -e 1040 -c 1 -i 26 -a 1 -x {0.0 7.0 -1 ------- null}
+ -t 0.51968 -s 0 -d 8 -p tcp -e 1040 -c 1 -i 27 -a 1 -x {0.0 7.0 16 ------- null}
r -t 0.52032 -s 8 -d 10 -p tcp -e 1040 -c 1 -i 20 -a 1 -x {0.0 7.0 13 ------- null}
+ -t 0.52032 -s 10 -d 7 -p tcp -e 1040 -c 1 -i 20 -a 1 -x {0.0 7.0 13 ------- null}
- -t 0.52032 -s 10 -d 7 -p tcp -e 1040 -c 1 -i 20 -a 1 -x {0.0 7.0 13 ------- null}
h -t 0.52032 -s 10 -d 7 -p tcp -e 1040 -c 1 -i 20 -a 1 -x {0.0 7.0 -1 ------- null}
r -t 0.522 -s 10 -d 7 -p tcp -e 1040 -c 1 -i 18 -a 1 -x {0.0 7.0 11 ------- null}
+ -t 0.522 -s 7 -d 10 -p ack -e 40 -c 1 -i 28 -a 1 -x {7.0 0.0 11 ------- null}
- -t 0.522 -s 7 -d 10 -p ack -e 40 -c 1 -i 28 -a 1 -x {7.0 0.0 11 ------- null}
h -t 0.522 -s 7 -d 10 -p ack -e 40 -c 1 -i 28 -a 1 -x {7.0 0.0 -1 ------- null}
r -t 0.524 -s 7 -d 10 -p ack -e 40 -c 1 -i 25 -a 1 -x {7.0 0.0 10 ------- null}
+ -t 0.524 -s 10 -d 8 -p ack -e 40 -c 1 -i 25 -a 1 -x {7.0 0.0 10 ------- null}
- -t 0.524 -s 10 -d 8 -p ack -e 40 -c 1 -i 25 -a 1 -x {7.0 0.0 10 ------- null}
h -t 0.524 -s 10 -d 8 -p ack -e 40 -c 1 -i 25 -a 1 -x {7.0 0.0 -1 ------- null}
r -t 0.526 -s 10 -d 8 -p ack -e 40 -c 1 -i 24 -a 1 -x {7.0 0.0 9 ------- null}
+ -t 0.526 -s 8 -d 0 -p ack -e 40 -c 1 -i 24 -a 1 -x {7.0 0.0 9 ------- null}
- -t 0.526 -s 8 -d 0 -p ack -e 40 -c 1 -i 24 -a 1 -x {7.0 0.0 9 ------- null}
h -t 0.526 -s 8 -d 0 -p ack -e 40 -c 1 -i 24 -a 1 -x {7.0 0.0 -1 ------- null}
r -t 0.528 -s 8 -d 0 -p ack -e 40 -c 1 -i 23 -a 1 -x {7.0 0.0 8 ------- null}
+ -t 0.528 -s 0 -d 8 -p tcp -e 1040 -c 1 -i 29 -a 1 -x {0.0 7.0 17 ------- null}
+ -t 0.528 -s 0 -d 8 -p tcp -e 1040 -c 1 -i 30 -a 1 -x {0.0 7.0 18 ------- null}
- -t 0.528 -s 0 -d 8 -p tcp -e 1040 -c 1 -i 27 -a 1 -x {0.0 7.0 16 ------- null}
h -t 0.528 -s 0 -d 8 -p tcp -e 1040 -c 1 -i 27 -a 1 -x {0.0 7.0 -1 ------- null}
r -t 0.52864 -s 8 -d 10 -p tcp -e 1040 -c 1 -i 21 -a 1 -x {0.0 7.0 14 ------- null}
+ -t 0.52864 -s 10 -d 7 -p tcp -e 1040 -c 1 -i 21 -a 1 -x {0.0 7.0 14 ------- null}
- -t 0.52864 -s 10 -d 7 -p tcp -e 1040 -c 1 -i 21 -a 1 -x {0.0 7.0 14 ------- null}
h -t 0.52864 -s 10 -d 7 -p tcp -e 1040 -c 1 -i 21 -a 1 -x {0.0 7.0 -1 ------- null}
r -t 0.53032 -s 10 -d 7 -p tcp -e 1040 -c 1 -i 19 -a 1 -x {0.0 7.0 12 ------- null}
+ -t 0.53032 -s 7 -d 10 -p ack -e 40 -c 1 -i 31 -a 1 -x {7.0 0.0 12 ------- null}
- -t 0.53032 -s 7 -d 10 -p ack -e 40 -c 1 -i 31 -a 1 -x {7.0 0.0 12 ------- null}
h -t 0.53032 -s 7 -d 10 -p ack -e 40 -c 1 -i 31 -a 1 -x {7.0 0.0 -1 ------- null}
r -t 0.53232 -s 7 -d 10 -p ack -e 40 -c 1 -i 28 -a 1 -x {7.0 0.0 11 ------- null}
+ -t 0.53232 -s 10 -d 8 -p ack -e 40 -c 1 -i 28 -a 1 -x {7.0 0.0 11 ------- null}
- -t 0.53232 -s 10 -d 8 -p ack -e 40 -c 1 -i 28 -a 1 -x {7.0 0.0 11 ------- null}
h -t 0.53232 -s 10 -d 8 -p ack -e 40 -c 1 -i 28 -a 1 -x {7.0 0.0 -1 ------- null}
r -t 0.53432 -s 10 -d 8 -p ack -e 40 -c 1 -i 25 -a 1 -x {7.0 0.0 10 ------- null}
+ -t 0.53432 -s 8 -d 0 -p ack -e 40 -c 1 -i 25 -a 1 -x {7.0 0.0 10 ------- null}
- -t 0.53432 -s 8 -d 0 -p ack -e 40 -c 1 -i 25 -a 1 -x {7.0 0.0 10 ------- null}
h -t 0.53432 -s 8 -d 0 -p ack -e 40 -c 1 -i 25 -a 1 -x {7.0 0.0 -1 ------- null}
r -t 0.53632 -s 8 -d 0 -p ack -e 40 -c 1 -i 24 -a 1 -x {7.0 0.0 9 ------- null}
+ -t 0.53632 -s 0 -d 8 -p tcp -e 1040 -c 1 -i 32 -a 1 -x {0.0 7.0 19 ------- null}
+ -t 0.53632 -s 0 -d 8 -p tcp -e 1040 -c 1 -i 33 -a 1 -x {0.0 7.0 20 ------- null}
- -t 0.53632 -s 0 -d 8 -p tcp -e 1040 -c 1 -i 29 -a 1 -x {0.0 7.0 17 ------- null}
h -t 0.53632 -s 0 -d 8 -p tcp -e 1040 -c 1 -i 29 -a 1 -x {0.0 7.0 -1 ------- null}
r -t 0.538 -s 0 -d 8 -p tcp -e 1040 -c 1 -i 26 -a 1 -x {0.0 7.0 15 ------- null}
+ -t 0.538 -s 8 -d 10 -p tcp -e 1040 -c 1 -i 26 -a 1 -x {0.0 7.0 15 ------- null}
- -t 0.538 -s 8 -d 10 -p tcp -e 1040 -c 1 -i 26 -a 1 -x {0.0 7.0 15 ------- null}
h -t 0.538 -s 8 -d 10 -p tcp -e 1040 -c 1 -i 26 -a 1 -x {0.0 7.0 -1 ------- null}
r -t 0.53864 -s 10 -d 7 -p tcp -e 1040 -c 1 -i 20 -a 1 -x {0.0 7.0 13 ------- null}
+ -t 0.53864 -s 7 -d 10 -p ack -e 40 -c 1 -i 34 -a 1 -x {7.0 0.0 13 ------- null}
- -t 0.53864 -s 7 -d 10 -p ack -e 40 -c 1 -i 34 -a 1 -x {7.0 0.0 13 ------- null}
h -t 0.53864 -s 7 -d 10 -p ack -e 40 -c 1 -i 34 -a 1 -x {7.0 0.0 -1 ------- null}
r -t 0.54064 -s 7 -d 10 -p ack -e 40 -c 1 -i 31 -a 1 -x {7.0 0.0 12 ------- null}
+ -t 0.54064 -s 10 -d 8 -p ack -e 40 -c 1 -i 31 -a 1 -x {7.0 0.0 12 ------- null}
- -t 0.54064 -s 10 -d 8 -p ack -e 40 -c 1 -i 31 -a 1 -x {7.0 0.0 12 ------- null}
h -t 0.54064 -s 10 -d 8 -p ack -e 40 -c 1 -i 31 -a 1 -x {7.0 0.0 -1 ------- null}