V -t * -v 1.0a5 -a 0
A -t * -n 1 -p 0 -o 0x7fffffff -c 30 -a 1
A -t * -h 1 -m 1073741823 -s 0
c -t * -i 1 -n Blue
c -t * -i 2 -n Red
n -t * -a 4 -s 4 -S UP -v circle -c black -i black
n -t * -a 0 -s 0 -S UP -v circle -c black -i black
n -t * -a 5 -s 5 -S UP -v circle -c black -i black
n -t * -a 1 -s 1 -S UP -v circle -c black -i black
n -t * -a 2 -s 2 -S UP -v circle -c black -i black
n -t * -a 3 -s 3 -S UP -v circle -c black -i black
l -t * -s 3 -d 5 -S UP -r 500000 -D 0.029999999999999999 -c black -o right-down
l -t * -s 0 -d 2 -S UP -r 2000000 -D 0.01 -c black -o right-down
l -t * -s 1 -d 2 -S UP -r 2000000 -D 0.01 -c black -o right-up
l -t * -s 2 -d 3 -S UP -r 300000 -D 0.10000000000000001 -c black -o right
l -t * -s 3 -d 4 -S UP -r 500000 -D 0.040000000000000001 -c black -o right-up
+ -t 0.1 -s 1 -d 2 -p cbr -e 1000 -c 2 -i 0 -a 2 -x {1.0 5.0 0 ------- null}
- -t 0.1 -s 1 -d 2 -p cbr -e 1000 -c 2 -i 0 -a 2 -x {1.0 5.0 0 ------- null}
h -t 0.1 -s 1 -d 2 -p cbr -e 1000 -c 2 -i 0 -a 2 -x {1.0 5.0 -1 ------- null}
r -t 0.114 -s 1 -d 2 -p cbr -e 1000 -c 2 -i 0 -a 2 -x {1.0 5.0 0 ------- null}
+ -t 0.114 -s 2 -d 3 -p cbr -e 1000 -c 2 -i 0 -a 2 -x {1.0 5.0 0 ------- null}
- -t 0.114 -s 2 -d 3 -p cbr -e 1000 -c 2 -i 0 -a 2 -x {1.0 5.0 0 ------- null}
h -t 0.114 -s 2 -d 3 -p cbr -e 1000 -c 2 -i 0 -a 2 -x {1.0 5.0 -1 ------- null}
r -t 0.240666666666667 -s 2 -d 3 -p cbr -e 1000 -c 2 -i 0 -a 2 -x {1.0 5.0 0 ------- null}
+ -t 0.240666666666667 -s 3 -d 5 -p cbr -e 1000 -c 2 -i 0 -a 2 -x {1.0 5.0 0 ------- null}
- -t 0.240666666666667 -s 3 -d 5 -p cbr -e 1000 -c 2 -i 0 -a 2 -x {1.0 5.0 0 ------- null}
h -t 0.240666666666667 -s 3 -d 5 -p cbr -e 1000 -c 2 -i 0 -a 2 -x {1.0 5.0 -1 ------- null}
r -t 0.286666666666667 -s 3 -d 5 -p cbr -e 1000 -c 2 -i 0 -a 2 -x {1.0 5.0 0 ------- null}
+ -t 0.9 -s 1 -d 2 -p cbr -e 1000 -c 2 -i 1 -a 2 -x {1.0 5.0 1 ------- null}
- -t 0.9 -s 1 -d 2 -p cbr -e 1000 -c 2 -i 1 -a 2 -x {1.0 5.0 1 ------- null}
h -t 0.9 -s 1 -d 2 -p cbr -e 1000 -c 2 -i 1 -a 2 -x {1.0 5.0 -1 ------- null}
r -t 0.914 -s 1 -d 2 -p cbr -e 1000 -c 2 -i 1 -a 2 -x {1.0 5.0 1 ------- null}
+ -t 0.914 -s 2 -d 3 -p cbr -e 1000 -c 2 -i 1 -a 2 -x {1.0 5.0 1 ------- null}
- -t 0.914 -s 2 -d 3 -p cbr -e 1000 -c 2 -i 1 -a 2 -x {1.0 5.0 1 ------- null}
h -t 0.914 -s 2 -d 3 -p cbr -e 1000 -c 2 -i 1 -a 2 -x {1.0 5.0 -1 ------- null}
+ -t 1 -s 0 -d 2 -p tcp -e 40 -c 1 -i 2 -a 1 -x {0.0 4.0 0 ------- null}
- -t 1 -s 0 -d 2 -p tcp -e 40 -c 1 -i 2 -a 1 -x {0.0 4.0 0 ------- null}
h -t 1 -s 0 -d 2 -p tcp -e 40 -c 1 -i 2 -a 1 -x {0.0 4.0 -1 ------- null}
r -t 1.01016 -s 0 -d 2 -p tcp -e 40 -c 1 -i 2 -a 1 -x {0.0 4.0 0 ------- null}
+ -t 1.01016 -s 2 -d 3 -p tcp -e 40 -c 1 -i 2 -a 1 -x {0.0 4.0 0 ------- null}
- -t 1.01016 -s 2 -d 3 -p tcp -e 40 -c 1 -i 2 -a 1 -x {0.0 4.0 0 ------- null}
h -t 1.01016 -s 2 -d 3 -p tcp -e 40 -c 1 -i 2 -a 1 -x {0.0 4.0 -1 ------- null}
r -t 1.04066666666667 -s 2 -d 3 -p cbr -e 1000 -c 2 -i 1 -a 2 -x {1.0 5.0 1 ------- null}
+ -t 1.04066666666667 -s 3 -d 5 -p cbr -e 1000 -c 2 -i 1 -a 2 -x {1.0 5.0 1 ------- null}
- -t 1.04066666666667 -s 3 -d 5 -p cbr -e 1000 -c 2 -i 1 -a 2 -x {1.0 5.0 1 ------- null}
h -t 1.04066666666667 -s 3 -d 5 -p cbr -e 1000 -c 2 -i 1 -a 2 -x {1.0 5.0 -1 ------- null}
r -t 1.08666666666667 -s 3 -d 5 -p cbr -e 1000 -c 2 -i 1 -a 2 -x {1.0 5.0 1 ------- null}
r -t 1.11122666666667 -s 2 -d 3 -p tcp -e 40 -c 1 -i 2 -a 1 -x {0.0 4.0 0 ------- null}
+ -t 1.11122666666667 -s 3 -d 4 -p tcp -e 40 -c 1 -i 2 -a 1 -x {0.0 4.0 0 ------- null}
- -t 1.11122666666667 -s 3 -d 4 -p tcp -e 40 -c 1 -i 2 -a 1 -x {0.0 4.0 0 ------- null}
h -t 1.11122666666667 -s 3 -d 4 -p tcp -e 40 -c 1 -i 2 -a 1 -x {0.0 4.0 -1 ------- null}
r -t 1.15186666666667 -s 3 -d 4 -p tcp -e 40 -c 1 -i 2 -a 1 -x {0.0 4.0 0 ------- null}
+ -t 1.15186666666667 -s 4 -d 3 -p ack -e 40 -c 1 -i 3 -a 1 -x {4.0 0.0 0 ------- null}
- -t 1.15186666666667 -s 4 -d 3 -p ack -e 40 -c 1 -i 3 -a 1 -x {4.0 0.0 0 ------- null}
h -t 1.15186666666667 -s 4 -d 3 -p ack -e 40 -c 1 -i 3 -a 1 -x {4.0 0.0 -1 ------- null}
r -t 1.19250666666667 -s 4 -d 3 -p ack -e 40 -c 1 -i 3 -a 1 -x {4.0 0.0 0 ------- null}
+ -t 1.19250666666667 -s 3 -d 2 -p ack -e 40 -c 1 -i 3 -a 1 -x {4.0 0.0 0 ------- null}
- -t 1.19250666666667 -s 3 -d 2 -p ack -e 40 -c 1 -i 3 -a 1 -x {4.0 0.0 0 ------- null}
h -t 1.19250666666667 -s 3 -d 2 -p ack -e 40 -c 1 -i 3 -a 1 -x {4.0 0.0 -1 ------- null}
r -t 1.29357333333333 -s 3 -d 2 -p ack -e 40 -c 1 -i 3 -a 1 -x {4.0 0.0 0 ------- null}
+ -t 1.29357333333333 -s 2 -d 0 -p ack -e 40 -c 1 -i 3 -a 1 -x {4.0 0.0 0 ------- null}
- -t 1.29357333333333 -s 2 -d 0 -p ack -e 40 -c 1 -i 3 -a 1 -x {4.0 0.0 0 ------- null}
h -t 1.29357333333333 -s 2 -d 0 -p ack -e 40 -c 1 -i 3 -a 1 -x {4.0 0.0 -1 ------- null}
r -t 1.30373333333333 -s 2 -d 0 -p ack -e 40 -c 1 -i 3 -a 1 -x {4.0 0.0 0 ------- null}
+ -t 1.30373333333333 -s 0 -d 2 -p tcp -e 592 -c 1 -i 4 -a 1 -x {0.0 4.0 1 ------- null}
- -t 1.30373333333333 -s 0 -d 2 -p tcp -e 592 -c 1 -i 4 -a 1 -x {0.0 4.0 1 ------- null}
h -t 1.30373333333333 -s 0 -d 2 -p tcp -e 592 -c 1 -i 4 -a 1 -x {0.0 4.0 -1 ------- null}
+ -t 1.30373333333333 -s 0 -d 2 -p tcp -e 592 -c 1 -i 5 -a 1 -x {0.0 4.0 2 ------- null}
- -t 1.30610133333333 -s 0 -d 2 -p tcp -e 592 -c 1 -i 5 -a 1 -x {0.0 4.0 2 ------- null}
h -t 1.30610133333333 -s 0 -d 2 -p tcp -e 592 -c 1 -i 5 -a 1 -x {0.0 4.0 -1 ------- null}
r -t 1.31610133333333 -s 0 -d 2 -p tcp -e 592 -c 1 -i 4 -a 1 -x {0.0 4.0 1 ------- null}
+ -t 1.31610133333333 -s 2 -d 3 -p tcp -e 592 -c 1 -i 4 -a 1 -x {0.0 4.0 1 ------- null}
- -t 1.31610133333333 -s 2 -d 3 -p tcp -e 592 -c 1 -i 4 -a 1 -x {0.0 4.0 1 ------- null}
h -t 1.31610133333333 -s 2 -d 3 -p tcp -e 592 -c 1 -i 4 -a 1 -x {0.0 4.0 -1 ------- null}
r -t 1.31846933333333 -s 0 -d 2 -p tcp -e 592 -c 1 -i 5 -a 1 -x {0.0 4.0 2 ------- null}
+ -t 1.31846933333333 -s 2 -d 3 -p tcp -e 592 -c 1 -i 5 -a 1 -x {0.0 4.0 2 ------- null}
- -t 1.331888 -s 2 -d 3 -p tcp -e 592 -c 1 -i 5 -a 1 -x {0.0 4.0 2 ------- null}
h -t 1.331888 -s 2 -d 3 -p tcp -e 592 -c 1 -i 5 -a 1 -x {0.0 4.0 -1 ------- null}
r -t 1.431888 -s 2 -d 3 -p tcp -e 592 -c 1 -i 4 -a 1 -x {0.0 4.0 1 ------- null}
+ -t 1.431888 -s 3 -d 4 -p tcp -e 592 -c 1 -i 4 -a 1 -x {0.0 4.0 1 ------- null}
- -t 1.431888 -s 3 -d 4 -p tcp -e 592 -c 1 -i 4 -a 1 -x {0.0 4.0 1 ------- null}
h -t 1.431888 -s 3 -d 4 -p tcp -e 592 -c 1 -i 4 -a 1 -x {0.0 4.0 -1 ------- null}
r -t 1.44767466666667 -s 2 -d 3 -p tcp -e 592 -c 1 -i 5 -a 1 -x {0.0 4.0 2 ------- null}
+ -t 1.44767466666667 -s 3 -d 4 -p tcp -e 592 -c 1 -i 5 -a 1 -x {0.0 4.0 2 ------- null}
- -t 1.44767466666667 -s 3 -d 4 -p tcp -e 592 -c 1 -i 5 -a 1 -x {0.0 4.0 2 ------- null}
h -t 1.44767466666667 -s 3 -d 4 -p tcp -e 592 -c 1 -i 5 -a 1 -x {0.0 4.0 -1 ------- null}
r -t 1.48136 -s 3 -d 4 -p tcp -e 592 -c 1 -i 4 -a 1 -x {0.0 4.0 1 ------- null}
r -t 1.49714666666667 -s 3 -d 4 -p tcp -e 592 -c 1 -i 5 -a 1 -x {0.0 4.0 2 ------- null}
+ -t 1.49714666666667 -s 4 -d 3 -p ack -e 40 -c 1 -i 6 -a 1 -x {4.0 0.0 2 ------- null}
- -t 1.49714666666667 -s 4 -d 3 -p ack -e 40 -c 1 -i 6 -a 1 -x {4.0 0.0 2 ------- null}
h -t 1.49714666666667 -s 4 -d 3 -p ack -e 40 -c 1 -i 6 -a 1 -x {4.0 0.0 -1 ------- null}
r -t 1.53778666666667 -s 4 -d 3 -p ack -e 40 -c 1 -i 6 -a 1 -x {4.0 0.0 2 ------- null}
+ -t 1.53778666666667 -s 3 -d 2 -p ack -e 40 -c 1 -i 6 -a 1 -x {4.0 0.0 2 ------- null}
- -t 1.53778666666667 -s 3 -d 2 -p ack -e 40 -c 1 -i 6 -a 1 -x {4.0 0.0 2 ------- null}
h -t 1.53778666666667 -s 3 -d 2 -p ack -e 40 -c 1 -i 6 -a 1 -x {4.0 0.0 -1 ------- null}
r -t 1.63885333333333 -s 3 -d 2 -p ack -e 40 -c 1 -i 6 -a 1 -x {4.0 0.0 2 ------- null}
+ -t 1.63885333333333 -s 2 -d 0 -p ack -e 40 -c 1 -i 6 -a 1 -x {4.0 0.0 2 ------- null}
- -t 1.63885333333333 -s 2 -d 0 -p ack -e 40 -c 1 -i 6 -a 1 -x {4.0 0.0 2 ------- null}
h -t 1.63885333333333 -s 2 -d 0 -p ack -e 40 -c 1 -i 6 -a 1 -x {4.0 0.0 -1 ------- null}
r -t 1.64901333333333 -s 2 -d 0 -p ack -e 40 -c 1 -i 6 -a 1 -x {4.0 0.0 2 ------- null}
+ -t 1.64901333333333 -s 0 -d 2 -p tcp -e 592 -c 1 -i 7 -a 1 -x {0.0 4.0 3 ------- null}
- -t 1.64901333333333 -s 0 -d 2 -p tcp -e 592 -c 1 -i 7 -a 1 -x {0.0 4.0 3 ------- null}
h -t 1.64901333333333 -s 0 -d 2 -p tcp -e 592 -c 1 -i 7 -a 1 -x {0.0 4.0 -1 ------- null}
+ -t 1.64901333333333 -s 0 -d 2 -p tcp -e 592 -c 1 -i 8 -a 1 -x {0.0 4.0 4 ------- null}
+ -t 1.64901333333333 -s 0 -d 2 -p tcp -e 592 -c 1 -i 9 -a 1 -x {0.0 4.0 5 ------- null}
- -t 1.65138133333333 -s 0 -d 2 -p tcp -e 592 -c 1 -i 8 -a 1 -x {0.0 4.0 4 ------- null}
h -t 1.65138133333333 -s 0 -d 2 -p tcp -e 592 -c 1 -i 8 -a 1 -x {0.0 4.0 -1 ------- null}
- -t 1.65374933333333 -s 0 -d 2 -p tcp -e 592 -c 1 -i 9 -a 1 -x {0.0 4.0 5 ------- null}
h -t 1.65374933333333 -s 0 -d 2 -p tcp -e 592 -c 1 -i 9 -a 1 -x {0.0 4.0 -1 ------- null}
r -t 1.66138133333333 -s 0 -d 2 -p tcp -e 592 -c 1 -i 7 -a 1 -x {0.0 4.0 3 ------- null}
+ -t 1.66138133333333 -s 2 -d 3 -p tcp -e 592 -c 1 -i 7 -a 1 -x {0.0 4.0 3 ------- null}
- -t 1.66138133333333 -s 2 -d 3 -p tcp -e 592 -c 1 -i 7 -a 1 -x {0.0 4.0 3 ------- null}
h -t 1.66138133333333 -s 2 -d 3 -p tcp -e 592 -c 1 -i 7 -a 1 -x {0.0 4.0 -1 ------- null}
r -t 1.66374933333333 -s 0 -d 2 -p tcp -e 592 -c 1 -i 8 -a 1 -x {0.0 4.0 4 ------- null}
+ -t 1.66374933333333 -s 2 -d 3 -p tcp -e 592 -c 1 -i 8 -a 1 -x {0.0 4.0 4 ------- null}
r -t 1.66611733333333 -s 0 -d 2 -p tcp -e 592 -c 1 -i 9 -a 1 -x {0.0 4.0 5 ------- null}
+ -t 1.66611733333333 -s 2 -d 3 -p tcp -e 592 -c 1 -i 9 -a 1 -x {0.0 4.0 5 ------- null}
- -t 1.677168 -s 2 -d 3 -p tcp -e 592 -c 1 -i 8 -a 1 -x {0.0 4.0 4 ------- null}
h -t 1.677168 -s 2 -d 3 -p tcp -e 592 -c 1 -i 8 -a 1 -x {0.0 4.0 -1 ------- null}
- -t 1.69295466666667 -s 2 -d 3 -p tcp -e 592 -c 1 -i 9 -a 1 -x {0.0 4.0 5 ------- null}
h -t 1.69295466666667 -s 2 -d 3 -p tcp -e 592 -c 1 -i 9 -a 1 -x {0.0 4.0 -1 ------- null}
+ -t 1.7 -s 1 -d 2 -p cbr -e 1000 -c 2 -i 10 -a 2 -x {1.0 5.0 2 ------- null}
- -t 1.7 -s 1 -d 2 -p cbr -e 1000 -c 2 -i 10 -a 2 -x {1.0 5.0 2 ------- null}
h -t 1.7 -s 1 -d 2 -p cbr -e 1000 -c 2 -i 10 -a 2 -x {1.0 5.0 -1 ------- null}
r -t 1.714 -s 1 -d 2 -p cbr -e 1000 -c 2 -i 10 -a 2 -x {1.0 5.0 2 ------- null}
+ -t 1.714 -s 2 -d 3 -p cbr -e 1000 -c 2 -i 10 -a 2 -x {1.0 5.0 2 ------- null}
- -t 1.714 -s 2 -d 3 -p cbr -e 1000 -c 2 -i 10 -a 2 -x {1.0 5.0 2 ------- null}
h -t 1.714 -s 2 -d 3 -p cbr -e 1000 -c 2 -i 10 -a 2 -x {1.0 5.0 -1 ------- null}
r -t 1.777168 -s 2 -d 3 -p tcp -e 592 -c 1 -i 7 -a 1 -x {0.0 4.0 3 ------- null}
+ -t 1.777168 -s 3 -d 4 -p tcp -e 592 -c 1 -i 7 -a 1 -x {0.0 4.0 3 ------- null}
- -t 1.777168 -s 3 -d 4 -p tcp -e 592 -c 1 -i 7 -a 1 -x {0.0 4.0 3 ------- null}
h -t 1.777168 -s 3 -d 4 -p tcp -e 592 -c 1 -i 7 -a 1 -x {0.0 4.0 -1 ------- null}
r -t 1.79295466666667 -s 2 -d 3 -p tcp -e 592 -c 1 -i 8 -a 1 -x {0.0 4.0 4 ------- null}
+ -t 1.79295466666667 -s 3 -d 4 -p tcp -e 592 -c 1 -i 8 -a 1 -x {0.0 4.0 4 ------- null}
- -t 1.79295466666667 -s 3 -d 4 -p tcp -e 592 -c 1 -i 8 -a 1 -x {0.0 4.0 4 ------- null}
h -t 1.79295466666667 -s 3 -d 4 -p tcp -e 592 -c 1 -i 8 -a 1 -x {0.0 4.0 -1 ------- null}
r -t 1.80874133333333 -s 2 -d 3 -p tcp -e 592 -c 1 -i 9 -a 1 -x {0.0 4.0 5 ------- null}
+ -t 1.80874133333333 -s 3 -d 4 -p tcp -e 592 -c 1 -i 9 -a 1 -x {0.0 4.0 5 ------- null}
- -t 1.80874133333333 -s 3 -d 4 -p tcp -e 592 -c 1 -i 9 -a 1 -x {0.0 4.0 5 ------- null}
h -t 1.80874133333333 -s 3 -d 4 -p tcp -e 592 -c 1 -i 9 -a 1 -x {0.0 4.0 -1 ------- null}
r -t 1.82664 -s 3 -d 4 -p tcp -e 592 -c 1 -i 7 -a 1 -x {0.0 4.0 3 ------- null}
r -t 1.84066666666667 -s 2 -d 3 -p cbr -e 1000 -c 2 -i 10 -a 2 -x {1.0 5.0 2 ------- null}
+ -t 1.84066666666667 -s 3 -d 5 -p cbr -e 1000 -c 2 -i 10 -a 2 -x {1.0 5.0 2 ------- null}
- -t 1.84066666666667 -s 3 -d 5 -p cbr -e 1000 -c 2 -i 10 -a 2 -x {1.0 5.0 2 ------- null}
h -t 1.84066666666667 -s 3 -d 5 -p cbr -e 1000 -c 2 -i 10 -a 2 -x {1.0 5.0 -1 ------- null}
r -t 1.84242666666667 -s 3 -d 4 -p tcp -e 592 -c 1 -i 8 -a 1 -x {0.0 4.0 4 ------- null}
+ -t 1.84242666666667 -s 4 -d 3 -p ack -e 40 -c 1 -i 11 -a 1 -x {4.0 0.0 4 ------- null}
- -t 1.84242666666667 -s 4 -d 3 -p ack -e 40 -c 1 -i 11 -a 1 -x {4.0 0.0 4 ------- null}
h -t 1.84242666666667 -s 4 -d 3 -p ack -e 40 -c 1 -i 11 -a 1 -x {4.0 0.0 -1 ------- null}
r -t 1.85821333333333 -s 3 -d 4 -p tcp -e 592 -c 1 -i 9 -a 1 -x {0.0 4.0 5 ------- null}
r -t 1.88306666666667 -s 4 -d 3 -p ack -e 40 -c 1 -i 11 -a 1 -x {4.0 0.0 4 ------- null}
+ -t 1.88306666666667 -s 3 -d 2 -p ack -e 40 -c 1 -i 11 -a 1 -x {4.0 0.0 4 ------- null}
- -t 1.88306666666667 -s 3 -d 2 -p ack -e 40 -c 1 -i 11 -a 1 -x {4.0 0.0 4 ------- null}
h -t 1.88306666666667 -s 3 -d 2 -p ack -e 40 -c 1 -i 11 -a 1 -x {4.0 0.0 -1 ------- null}
r -t 1.88666666666667 -s 3 -d 5 -p cbr -e 1000 -c 2 -i 10 -a 2 -x {1.0 5.0 2 ------- null}
+ -t 1.95821333333333 -s 4 -d 3 -p ack -e 40 -c 1 -i 12 -a 1 -x {4.0 0.0 5 ------- null}
- -t 1.95821333333333 -s 4 -d 3 -p ack -e 40 -c 1 -i 12 -a 1 -x {4.0 0.0 5 ------- null}
h -t 1.95821333333333 -s 4 -d 3 -p ack -e 40 -c 1 -i 12 -a 1 -x {4.0 0.0 -1 ------- null}
r -t 1.98413333333333 -s 3 -d 2 -p ack -e 40 -c 1 -i 11 -a 1 -x {4.0 0.0 4 ------- null}
+ -t 1.98413333333333 -s 2 -d 0 -p ack -e 40 -c 1 -i 11 -a 1 -x {4.0 0.0 4 ------- null}
- -t 1.98413333333333 -s 2 -d 0 -p ack -e 40 -c 1 -i 11 -a 1 -x {4.0 0.0 4 ------- null}
h -t 1.98413333333333 -s 2 -d 0 -p ack -e 40 -c 1 -i 11 -a 1 -x {4.0 0.0 -1 ------- null}
r -t 1.99429333333333 -s 2 -d 0 -p ack -e 40 -c 1 -i 11 -a 1 -x {4.0 0.0 4 ------- null}
+ -t 1.99429333333333 -s 0 -d 2 -p tcp -e 592 -c 1 -i 13 -a 1 -x {0.0 4.0 6 ------- null}
- -t 1.99429333333333 -s 0 -d 2 -p tcp -e 592 -c 1 -i 13 -a 1 -x {0.0 4.0 6 ------- null}
h -t 1.99429333333333 -s 0 -d 2 -p tcp -e 592 -c 1 -i 13 -a 1 -x {0.0 4.0 -1 ------- null}
+ -t 1.99429333333333 -s 0 -d 2 -p tcp -e 592 -c 1 -i 14 -a 1 -x {0.0 4.0 7 ------- null}
+ -t 1.99429333333333 -s 0 -d 2 -p tcp -e 592 -c 1 -i 15 -a 1 -x {0.0 4.0 8 ------- null}
- -t 1.99666133333333 -s 0 -d 2 -p tcp -e 592 -c 1 -i 14 -a 1 -x {0.0 4.0 7 ------- null}
h -t 1.99666133333333 -s 0 -d 2 -p tcp -e 592 -c 1 -i 14 -a 1 -x {0.0 4.0 -1 ------- null}
r -t 1.99885333333333 -s 4 -d 3 -p ack -e 40 -c 1 -i 12 -a 1 -x {4.0 0.0 5 ------- null}
+ -t 1.99885333333333 -s 3 -d 2 -p ack -e 40 -c 1 -i 12 -a 1 -x {4.0 0.0 5 ------- null}
- -t 1.99885333333333 -s 3 -d 2 -p ack -e 40 -c 1 -i 12 -a 1 -x {4.0 0.0 5 ------- null}
h -t 1.99885333333333 -s 3 -d 2 -p ack -e 40 -c 1 -i 12 -a 1 -x {4.0 0.0 -1 ------- null}
- -t 1.99902933333333 -s 0 -d 2 -p tcp -e 592 -c 1 -i 15 -a 1 -x {0.0 4.0 8 ------- null}
h -t 1.99902933333333 -s 0 -d 2 -p tcp -e 592 -c 1 -i 15 -a 1 -x {0.0 4.0 -1 ------- null}
r -t 2.00666133333333 -s 0 -d 2 -p tcp -e 592 -c 1 -i 13 -a 1 -x {0.0 4.0 6 ------- null}
+ -t 2.00666133333333 -s 2 -d 3 -p tcp -e 592 -c 1 -i 13 -a 1 -x {0.0 4.0 6 ------- null}
- -t 2.00666133333333 -s 2 -d 3 -p tcp -e 592 -c 1 -i 13 -a 1 -x {0.0 4.0 6 ------- null}
h -t 2.00666133333333 -s 2 -d 3 -p tcp -e 592 -c 1 -i 13 -a 1 -x {0.0 4.0 -1 ------- null}
r -t 2.00902933333333 -s 0 -d 2 -p tcp -e 592 -c 1 -i 14 -a 1 -x {0.0 4.0 7 ------- null}
+ -t 2.00902933333333 -s 2 -d 3 -p tcp -e 592 -c 1 -i 14 -a 1 -x {0.0 4.0 7 ------- null}
r -t 2.01139733333333 -s 0 -d 2 -p tcp -e 592 -c 1 -i 15 -a 1 -x {0.0 4.0 8 ------- null}
+ -t 2.01139733333333 -s 2 -d 3 -p tcp -e 592 -c 1 -i 15 -a 1 -x {0.0 4.0 8 ------- null}
- -t 2.022448 -s 2 -d 3 -p tcp -e 592 -c 1 -i 14 -a 1 -x {0.0 4.0 7 ------- null}
h -t 2.022448 -s 2 -d 3 -p tcp -e 592 -c 1 -i 14 -a 1 -x {0.0 4.0 -1 ------- null}
- -t 2.03823466666667 -s 2 -d 3 -p tcp -e 592 -c 1 -i 15 -a 1 -x {0.0 4.0 8 ------- null}
h -t 2.03823466666667 -s 2 -d 3 -p tcp -e 592 -c 1 -i 15 -a 1 -x {0.0 4.0 -1 ------- null}
r -t 2.09992 -s 3 -d 2 -p ack -e 40 -c 1 -i 12 -a 1 -x {4.0 0.0 5 ------- null}
+ -t 2.09992 -s 2 -d 0 -p ack -e 40 -c 1 -i 12 -a 1 -x {4.0 0.0 5 ------- null}
- -t 2.09992 -s 2 -d 0 -p ack -e 40 -c 1 -i 12 -a 1 -x {4.0 0.0 5 ------- null}
h -t 2.09992 -s 2 -d 0 -p ack -e 40 -c 1 -i 12 -a 1 -x {4.0 0.0 -1 ------- null}
r -t 2.11008 -s 2 -d 0 -p ack -e 40 -c 1 -i 12 -a 1 -x {4.0 0.0 5 ------- null}
+ -t 2.11008 -s 0 -d 2 -p tcp -e 592 -c 1 -i 16 -a 1 -x {0.0 4.0 9 ------- null}
- -t 2.11008 -s 0 -d 2 -p tcp -e 592 -c 1 -i 16 -a 1 -x {0.0 4.0 9 ------- null}
h -t 2.11008 -s 0 -d 2 -p tcp -e 592 -c 1 -i 16 -a 1 -x {0.0 4.0 -1 ------- null}
+ -t 2.11008 -s 0 -d 2 -p tcp -e 592 -c 1 -i 17 -a 1 -x {0.0 4.0 10 ------- null}
- -t 2.112448 -s 0 -d 2 -p tcp -e 592 -c 1 -i 17 -a 1 -x {0.0 4.0 10 ------- null}
h -t 2.112448 -s 0 -d 2 -p tcp -e 592 -c 1 -i 17 -a 1 -x {0.0 4.0 -1 ------- null}
r -t 2.122448 -s 2 -d 3 -p tcp -e 592 -c 1 -i 13 -a 1 -x {0.0 4.0 6 ------- null}
+ -t 2.122448 -s 3 -d 4 -p tcp -e 592 -c 1 -i 13 -a 1 -x {0.0 4.0 6 ------- null}
- -t 2.122448 -s 3 -d 4 -p tcp -e 592 -c 1 -i 13 -a 1 -x {0.0 4.0 6 ------- null}
h -t 2.122448 -s 3 -d 4 -p tcp -e 592 -c 1 -i 13 -a 1 -x {0.0 4.0 -1 ------- null}
r -t 2.122448 -s 0 -d 2 -p tcp -e 592 -c 1 -i 16 -a 1 -x {0.0 4.0 9 ------- null}
+ -t 2.122448 -s 2 -d 3 -p tcp -e 592 -c 1 -i 16 -a 1 -x {0.0 4.0 9 ------- null}
- -t 2.122448 -s 2 -d 3 -p tcp -e 592 -c 1 -i 16 -a 1 -x {0.0 4.0 9 ------- null}
h -t 2.122448 -s 2 -d 3 -p tcp -e 592 -c 1 -i 16 -a 1 -x {0.0 4.0 -1 ------- null}
r -t 2.124816 -s 0 -d 2 -p tcp -e 592 -c 1 -i 17 -a 1 -x {0.0 4.0 10 ------- null}
+ -t 2.124816 -s 2 -d 3 -p tcp -e 592 -c 1 -i 17 -a 1 -x {0.0 4.0 10 ------- null}
r -t 2.13823466666667 -s 2 -d 3 -p tcp -e 592 -c 1 -i 14 -a 1 -x {0.0 4.0 7 ------- null}
+ -t 2.13823466666667 -s 3 -d 4 -p tcp -e 592 -c 1 -i 14 -a 1 -x {0.0 4.0 7 ------- null}
- -t 2.13823466666667 -s 3 -d 4 -p tcp -e 592 -c 1 -i 14 -a 1 -x {0.0 4.0 7 ------- null}
h -t 2.13823466666667 -s 3 -d 4 -p tcp -e 592 -c 1 -i 14 -a 1 -x {0.0 4.0 -1 ------- null}
- -t 2.13823466666667 -s 2 -d 3 -p tcp -e 592 -c 1 -i 17 -a 1 -x {0.0 4.0 10 ------- null}
h -t 2.13823466666667 -s 2 -d 3 -p tcp -e 592 -c 1 -i 17 -a 1 -x {0.0 4.0 -1 ------- null}
r -t 2.15402133333333 -s 2 -d 3 -p tcp -e 592 -c 1 -i 15 -a 1 -x {0.0 4.0 8 ------- null}
+ -t 2.15402133333333 -s 3 -d 4 -p tcp -e 592 -c 1 -i 15 -a 1 -x {0.0 4.0 8 ------- null}
- -t 2.15402133333333 -s 3 -d 4 -p tcp -e 592 -c 1 -i 15 -a 1 -x {0.0 4.0 8 ------- null}
h -t 2.15402133333333 -s 3 -d 4 -p tcp -e 592 -c 1 -i 15 -a 1 -x {0.0 4.0 -1 ------- null}
r -t 2.17192 -s 3 -d 4 -p tcp -e 592 -c 1 -i 13 -a 1 -x {0.0 4.0 6 ------- null}
r -t 2.18770666666667 -s 3 -d 4 -p tcp -e 592 -c 1 -i 14 -a 1 -x {0.0 4.0 7 ------- null}
+ -t 2.18770666666667 -s 4 -d 3 -p ack -e 40 -c 1 -i 18 -a 1 -x {4.0 0.0 7 ------- null}
- -t 2.18770666666667 -s 4 -d 3 -p ack -e 40 -c 1 -i 18 -a 1 -x {4.0 0.0 7 ------- null}
h -t 2.18770666666667 -s 4 -d 3 -p ack -e 40 -c 1 -i 18 -a 1 -x {4.0 0.0 -1 ------- null}
r -t 2.20349333333333 -s 3 -d 4 -p tcp -e 592 -c 1 -i 15 -a 1 -x {0.0 4.0 8 ------- null}
r -t 2.22834666666667 -s 4 -d 3 -p ack -e 40 -c 1 -i 18 -a 1 -x {4.0 0.0 7 ------- null}
+ -t 2.22834666666667 -s 3 -d 2 -p ack -e 40 -c 1 -i 18 -a 1 -x {4.0 0.0 7 ------- null}
- -t 2.22834666666667 -s 3 -d 2 -p ack -e 40 -c 1 -i 18 -a 1 -x {4.0 0.0 7 ------- null}
h -t 2.22834666666667 -s 3 -d 2 -p ack -e 40 -c 1 -i 18 -a 1 -x {4.0 0.0 -1 ------- null}
r -t 2.23823466666667 -s 2 -d 3 -p tcp -e 592 -c 1 -i 16 -a 1 -x {0.0 4.0 9 ------- null}
+ -t 2.23823466666667 -s 3 -d 4 -p tcp -e 592 -c 1 -i 16 -a 1 -x {0.0 4.0 9 ------- null}
- -t 2.23823466666667 -s 3 -d 4 -p tcp -e 592 -c 1 -i 16 -a 1 -x {0.0 4.0 9 ------- null}
h -t 2.23823466666667 -s 3 -d 4 -p tcp -e 592 -c 1 -i 16 -a 1 -x {0.0 4.0 -1 ------- null}
r -t 2.25402133333333 -s 2 -d 3 -p tcp -e 592 -c 1 -i 17 -a 1 -x {0.0 4.0 10 ------- null}
+ -t 2.25402133333333 -s 3 -d 4 -p tcp -e 592 -c 1 -i 17 -a 1 -x {0.0 4.0 10 ------- null}
- -t 2.25402133333333 -s 3 -d 4 -p tcp -e 592 -c 1 -i 17 -a 1 -x {0.0 4.0 10 ------- null}
h -t 2.25402133333333 -s 3 -d 4 -p tcp -e 592 -c 1 -i 17 -a 1 -x {0.0 4.0 -1 ------- null}
r -t 2.28770666666667 -s 3 -d 4 -p tcp -e 592 -c 1 -i 16 -a 1 -x {0.0 4.0 9 ------- null}
+ -t 2.28770666666667 -s 4 -d 3 -p ack -e 40 -c 1 -i 19 -a 1 -x {4.0 0.0 9 ------- null}
- -t 2.28770666666667 -s 4 -d 3 -p ack -e 40 -c 1 -i 19 -a 1 -x {4.0 0.0 9 ------- null}
h -t 2.28770666666667 -s 4 -d 3 -p ack -e 40 -c 1 -i 19 -a 1 -x {4.0 0.0 -1 ------- null}
r -t 2.30349333333333 -s 3 -d 4 -p tcp -e 592 -c 1 -i 17 -a 1 -x {0.0 4.0 10 ------- null}
r -t 2.32834666666667 -s 4 -d 3 -p ack -e 40 -c 1 -i 19 -a 1 -x {4.0 0.0 9 ------- null}
+ -t 2.32834666666667 -s 3 -d 2 -p ack -e 40 -c 1 -i 19 -a 1 -x {4.0 0.0 9 ------- null}
- -t 2.32834666666667 -s 3 -d 2 -p ack -e 40 -c 1 -i 19 -a 1 -x {4.0 0.0 9 ------- null}
h -t 2.32834666666667 -s 3 -d 2 -p ack -e 40 -c 1 -i 19 -a 1 -x {4.0 0.0 -1 ------- null}
r -t 2.32941333333333 -s 3 -d 2 -p ack -e 40 -c 1 -i 18 -a 1 -x {4.0 0.0 7 ------- null}
+ -t 2.32941333333333 -s 2 -d 0 -p ack -e 40 -c 1 -i 18 -a 1 -x {4.0 0.0 7 ------- null}
- -t 2.32941333333333 -s 2 -d 0 -p ack -e 40 -c 1 -i 18 -a 1 -x {4.0 0.0 7 ------- null}
h -t 2.32941333333333 -s 2 -d 0 -p ack -e 40 -c 1 -i 18 -a 1 -x {4.0 0.0 -1 ------- null}
r -t 2.33957333333333 -s 2 -d 0 -p ack -e 40 -c 1 -i 18 -a 1 -x {4.0 0.0 7 ------- null}
+ -t 2.33957333333333 -s 0 -d 2 -p tcp -e 592 -c 1 -i 20 -a 1 -x {0.0 4.0 11 ------- null}
- -t 2.33957333333333 -s 0 -d 2 -p tcp -e 592 -c 1 -i 20 -a 1 -x {0.0 4.0 11 ------- null}
h -t 2.33957333333333 -s 0 -d 2 -p tcp -e 592 -c 1 -i 20 -a 1 -x {0.0 4.0 -1 ------- null}
+ -t 2.33957333333333 -s 0 -d 2 -p tcp -e 592 -c 1 -i 21 -a 1 -x {0.0 4.0 12 ------- null}
+ -t 2.33957333333333 -s 0 -d 2 -p tcp -e 592 -c 1 -i 22 -a 1 -x {0.0 4.0 13 ------- null}
- -t 2.34194133333333 -s 0 -d 2 -p tcp -e 592 -c 1 -i 21 -a 1 -x {0.0 4.0 12 ------- null}
h -t 2.34194133333333 -s 0 -d 2 -p tcp -e 592 -c 1 -i 21 -a 1 -x {0.0 4.0 -1 ------- null}
- -t 2.34430933333333 -s 0 -d 2 -p tcp -e 592 -c 1 -i 22 -a 1 -x {0.0 4.0 13 ------- null}
h -t 2.34430933333333 -s 0 -d 2 -p tcp -e 592 -c 1 -i 22 -a 1 -x {0.0 4.0 -1 ------- null}
r -t 2.35194133333333 -s 0 -d 2 -p tcp -e 592 -c 1 -i 20 -a 1 -x {0.0 4.0 11 ------- null}
+ -t 2.35194133333333 -s 2 -d 3 -p tcp -e 592 -c 1 -i 20 -a 1 -x {0.0 4.0 11 ------- null}
- -t 2.35194133333333 -s 2 -d 3 -p tcp -e 592 -c 1 -i 20 -a 1 -x {0.0 4.0 11 ------- null}
h -t 2.35194133333333 -s 2 -d 3 -p tcp -e 592 -c 1 -i 20 -a 1 -x {0.0 4.0 -1 ------- null}
r -t 2.35430933333333 -s 0 -d 2 -p tcp -e 592 -c 1 -i 21 -a 1 -x {0.0 4.0 12 ------- null}
+ -t 2.35430933333333 -s 2 -d 3 -p tcp -e 592 -c 1 -i 21 -a 1 -x {0.0 4.0 12 ------- null}
r -t 2.35667733333333 -s 0 -d 2 -p tcp -e 592 -c 1 -i 22 -a 1 -x {0.0 4.0 13 ------- null}
+ -t 2.35667733333333 -s 2 -d 3 -p tcp -e 592 -c 1 -i 22 -a 1 -x {0.0 4.0 13 ------- null}
- -t 2.367728 -s 2 -d 3 -p tcp -e 592 -c 1 -i 21 -a 1 -x {0.0 4.0 12 ------- null}
h -t 2.367728 -s 2 -d 3 -p tcp -e 592 -c 1 -i 21 -a 1 -x {0.0 4.0 -1 ------- null}
- -t 2.38351466666667 -s 2 -d 3 -p tcp -e 592 -c 1 -i 22 -a 1 -x {0.0 4.0 13 ------- null}
h -t 2.38351466666667 -s 2 -d 3 -p tcp -e 592 -c 1 -i 22 -a 1 -x {0.0 4.0 -1 ------- null}
+ -t 2.40349333333333 -s 4 -d 3 -p ack -e 40 -c 1 -i 23 -a 1 -x {4.0 0.0 10 ------- null}
- -t 2.40349333333333 -s 4 -d 3 -p ack -e 40 -c 1 -i 23 -a 1 -x {4.0 0.0 10 ------- null}
h -t 2.40349333333333 -s 4 -d 3 -p ack -e 40 -c 1 -i 23 -a 1 -x {4.0 0.0 -1 ------- null}
r -t 2.42941333333333 -s 3 -d 2 -p ack -e 40 -c 1 -i 19 -a 1 -x {4.0 0.0 9 ------- null}
+ -t 2.42941333333333 -s 2 -d 0 -p ack -e 40 -c 1 -i 19 -a 1 -x {4.0 0.0 9 ------- null}
- -t 2.42941333333333 -s 2 -d 0 -p ack -e 40 -c 1 -i 19 -a 1 -x {4.0 0.0 9 ------- null}
h -t 2.42941333333333 -s 2 -d 0 -p ack -e 40 -c 1 -i 19 -a 1 -x {4.0 0.0 -1 ------- null}
r -t 2.43957333333333 -s 2 -d 0 -p ack -e 40 -c 1 -i 19 -a 1 -x {4.0 0.0 9 ------- null}
+ -t 2.43957333333333 -s 0 -d 2 -p tcp -e 592 -c 1 -i 24 -a 1 -x {0.0 4.0 14 ------- null}
- -t 2.43957333333333 -s 0 -d 2 -p tcp -e 592 -c 1 -i 24 -a 1 -x {0.0 4.0 14 ------- null}
h -t 2.43957333333333 -s 0 -d 2 -p tcp -e 592 -c 1 -i 24 -a 1 -x {0.0 4.0 -1 ------- null}
+ -t 2.43957333333333 -s 0 -d 2 -p tcp -e 592 -c 1 -i 25 -a 1 -x {0.0 4.0 15 ------- null}
+ -t 2.43957333333333 -s 0 -d 2 -p tcp -e 592 -c 1 -i 26 -a 1 -x {0.0 4.0 16 ------- null}
- -t 2.44194133333333 -s 0 -d 2 -p tcp -e 592 -c 1 -i 25 -a 1 -x {0.0 4.0 15 ------- null}
h -t 2.44194133333333 -s 0 -d 2 -p tcp -e 592 -c 1 -i 25 -a 1 -x {0.0 4.0 -1 ------- null}
r -t 2.44413333333333 -s 4 -d 3 -p ack -e 40 -c 1 -i 23 -a 1 -x {4.0 0.0 10 ------- null}
+ -t 2.44413333333333 -s 3 -d 2 -p ack -e 40 -c 1 -i 23 -a 1 -x {4.0 0.0 10 ------- null}
- -t 2.44413333333333 -s 3 -d 2 -p ack -e 40 -c 1 -i 23 -a 1 -x {4.0 0.0 10 ------- null}
h -t 2.44413333333333 -s 3 -d 2 -p ack -e 40 -c 1 -i 23 -a 1 -x {4.0 0.0 -1 ------- null}
- -t 2.44430933333333 -s 0 -d 2 -p tcp -e 592 -c 1 -i 26 -a 1 -x {0.0 4.0 16 ------- null}
h -t 2.44430933333333 -s 0 -d 2 -p tcp -e 592 -c 1 -i 26 -a 1 -x {0.0 4.0 -1 ------- null}
r -t 2.45194133333333 -s 0 -d 2 -p tcp -e 592 -c 1 -i 24 -a 1 -x {0.0 4.0 14 ------- null}
+ -t 2.45194133333333 -s 2 -d 3 -p tcp -e 592 -c 1 -i 24 -a 1 -x {0.0 4.0 14 ------- null}
- -t 2.45194133333333 -s 2 -d 3 -p tcp -e 592 -c 1 -i 24 -a 1 -x {0.0 4.0 14 ------- null}
h -t 2.45194133333333 -s 2 -d 3 -p tcp -e 592 -c 1 -i 24 -a 1 -x {0.0 4.0 -1 ------- null}
r -t 2.45430933333333 -s 0 -d 2 -p tcp -e 592 -c 1 -i 25 -a 1 -x {0.0 4.0 15 ------- null}
+ -t 2.45430933333333 -s 2 -d 3 -p tcp -e 592 -c 1 -i 25 -a 1 -x {0.0 4.0 15 ------- null}
r -t 2.45667733333333 -s 0 -d 2 -p tcp -e 592 -c 1 -i 26 -a 1 -x {0.0 4.0 16 ------- null}
+ -t 2.45667733333333 -s 2 -d 3 -p tcp -e 592 -c 1 -i 26 -a 1 -x {0.0 4.0 16 ------- null}
r -t 2.467728 -s 2 -d 3 -p tcp -e 592 -c 1 -i 20 -a 1 -x {0.0 4.0 11 ------- null}
+ -t 2.467728 -s 3 -d 4 -p tcp -e 592 -c 1 -i 20 -a 1 -x {0.0 4.0 11 ------- null}
- -t 2.467728 -s 3 -d 4 -p tcp -e 592 -c 1 -i 20 -a 1 -x {0.0 4.0 11 ------- null}
h -t 2.467728 -s 3 -d 4 -p tcp -e 592 -c 1 -i 20 -a 1 -x {0.0 4.0 -1 ------- null}
- -t 2.467728 -s 2 -d 3 -p tcp -e 592 -c 1 -i 25 -a 1 -x {0.0 4.0 15 ------- null}
h -t 2.467728 -s 2 -d 3 -p tcp -e 592 -c 1 -i 25 -a 1 -x {0.0 4.0 -1 ------- null}
r -t 2.48351466666667 -s 2 -d 3 -p tcp -e 592 -c 1 -i 21 -a 1 -x {0.0 4.0 12 ------- null}
+ -t 2.48351466666667 -s 3 -d 4 -p tcp -e 592 -c 1 -i 21 -a 1 -x {0.0 4.0 12 ------- null}
- -t 2.48351466666667 -s 3 -d 4 -p tcp -e 592 -c 1 -i 21 -a 1 -x {0.0 4.0 12 ------- null}
h -t 2.48351466666667 -s 3 -d 4 -p tcp -e 592 -c 1 -i 21 -a 1 -x {0.0 4.0 -1 ------- null}
- -t 2.48351466666667 -s 2 -d 3 -p tcp -e 592 -c 1 -i 26 -a 1 -x {0.0 4.0 16 ------- null}
h -t 2.48351466666667 -s 2 -d 3 -p tcp -e 592 -c 1 -i 26 -a 1 -x {0.0 4.0 -1 ------- null}
r -t 2.49930133333333 -s 2 -d 3 -p tcp -e 592 -c 1 -i 22 -a 1 -x {0.0 4.0 13 ------- null}
+ -t 2.49930133333333 -s 3 -d 4 -p tcp -e 592 -c 1 -i 22 -a 1 -x {0.0 4.0 13 ------- null}
- -t 2.49930133333333 -s 3 -d 4 -p tcp -e 592 -c 1 -i 22 -a 1 -x {0.0 4.0 13 ------- null}
h -t 2.49930133333333 -s 3 -d 4 -p tcp -e 592 -c 1 -i 22 -a 1 -x {0.0 4.0 -1 ------- null}
+ -t 2.5 -s 1 -d 2 -p cbr -e 1000 -c 2 -i 27 -a 2 -x {1.0 5.0 3 ------- null}
- -t 2.5 -s 1 -d 2 -p cbr -e 1000 -c 2 -i 27 -a 2 -x {1.0 5.0 3 ------- null}
h -t 2.5 -s 1 -d 2 -p cbr -e 1000 -c 2 -i 27 -a 2 -x {1.0 5.0 -1 ------- null}
r -t 2.514 -s 1 -d 2 -p cbr -e 1000 -c 2 -i 27 -a 2 -x {1.0 5.0 3 ------- null}
+ -t 2.514 -s 2 -d 3 -p cbr -e 1000 -c 2 -i 27 -a 2 -x {1.0 5.0 3 ------- null}
- -t 2.514 -s 2 -d 3 -p cbr -e 1000 -c 2 -i 27 -a 2 -x {1.0 5.0 3 ------- null}
h -t 2.514 -s 2 -d 3 -p cbr -e 1000 -c 2 -i 27 -a 2 -x {1.0 5.0 -1 ------- null}
r -t 2.5172 -s 3 -d 4 -p tcp -e 592 -c 1 -i 20 -a 1 -x {0.0 4.0 11 ------- null}
r -t 2.53298666666667 -s 3 -d 4 -p tcp -e 592 -c 1 -i 21 -a 1 -x {0.0 4.0 12 ------- null}
+ -t 2.53298666666667 -s 4 -d 3 -p ack -e 40 -c 1 -i 28 -a 1 -x {4.0 0.0 12 ------- null}
- -t 2.53298666666667 -s 4 -d 3 -p ack -e 40 -c 1 -i 28 -a 1 -x {4.0 0.0 12 ------- null}
h -t 2.53298666666667 -s 4 -d 3 -p ack -e 40 -c 1 -i 28 -a 1 -x {4.0 0.0 -1 ------- null}
r -t 2.5452 -s 3 -d 2 -p ack -e 40 -c 1 -i 23 -a 1 -x {4.0 0.0 10 ------- null}
+ -t 2.5452 -s 2 -d 0 -p ack -e 40 -c 1 -i 23 -a 1 -x {4.0 0.0 10 ------- null}
- -t 2.5452 -s 2 -d 0 -p ack -e 40 -c 1 -i 23 -a 1 -x {4.0 0.0 10 ------- null}
h -t 2.5452 -s 2 -d 0 -p ack -e 40 -c 1 -i 23 -a 1 -x {4.0 0.0 -1 ------- null}
r -t 2.54877333333333 -s 3 -d 4 -p tcp -e 592 -c 1 -i 22 -a 1 -x {0.0 4.0 13 ------- null}
r -t 2.55536 -s 2 -d 0 -p ack -e 40 -c 1 -i 23 -a 1 -x {4.0 0.0 10 ------- null}
+ -t 2.55536 -s 0 -d 2 -p tcp -e 592 -c 1 -i 29 -a 1 -x {0.0 4.0 17 ------- null}
- -t 2.55536 -s 0 -d 2 -p tcp -e 592 -c 1 -i 29 -a 1 -x {0.0 4.0 17 ------- null}
h -t 2.55536 -s 0 -d 2 -p tcp -e 592 -c 1 -i 29 -a 1 -x {0.0 4.0 -1 ------- null}
+ -t 2.55536 -s 0 -d 2 -p tcp -e 592 -c 1 -i 30 -a 1 -x {0.0 4.0 18 ------- null}
- -t 2.557728 -s 0 -d 2 -p tcp -e 592 -c 1 -i 30 -a 1 -x {0.0 4.0 18 ------- null}
h -t 2.557728 -s 0 -d 2 -p tcp -e 592 -c 1 -i 30 -a 1 -x {0.0 4.0 -1 ------- null}
r -t 2.567728 -s 2 -d 3 -p tcp -e 592 -c 1 -i 24 -a 1 -x {0.0 4.0 14 ------- null}
+ -t 2.567728 -s 3 -d 4 -p tcp -e 592 -c 1 -i 24 -a 1 -x {0.0 4.0 14 ------- null}
- -t 2.567728 -s 3 -d 4 -p tcp -e 592 -c 1 -i 24 -a 1 -x {0.0 4.0 14 ------- null}
h -t 2.567728 -s 3 -d 4 -p tcp -e 592 -c 1 -i 24 -a 1 -x {0.0 4.0 -1 ------- null}
r -t 2.567728 -s 0 -d 2 -p tcp -e 592 -c 1 -i 29 -a 1 -x {0.0 4.0 17 ------- null}
+ -t 2.567728 -s 2 -d 3 -p tcp -e 592 -c 1 -i 29 -a 1 -x {0.0 4.0 17 ------- null}
- -t 2.567728 -s 2 -d 3 -p tcp -e 592 -c 1 -i 29 -a 1 -x {0.0 4.0 17 ------- null}
h -t 2.567728 -s 2 -d 3 -p tcp -e 592 -c 1 -i 29 -a 1 -x {0.0 4.0 -1 ------- null}
r -t 2.570096 -s 0 -d 2 -p tcp -e 592 -c 1 -i 30 -a 1 -x {0.0 4.0 18 ------- null}
+ -t 2.570096 -s 2 -d 3 -p tcp -e 592 -c 1 -i 30 -a 1 -x {0.0 4.0 18 ------- null}