+ 0.5 0 2 tcp 40 ------- 1 0.0 4.0 0 0
- 0.5 0 2 tcp 40 ------- 1 0.0 4.0 0 0
+ 0.5 1 2 tcp 40 ------- 2 1.0 4.1 0 1
- 0.5 1 2 tcp 40 ------- 2 1.0 4.1 0 1
r 0.60016 0 2 tcp 40 ------- 1 0.0 4.0 0 0
+ 0.60016 2 3 tcp 40 ------- 1 0.0 4.0 0 0
- 0.60016 2 3 tcp 40 ------- 1 0.0 4.0 0 0
r 0.60016 1 2 tcp 40 ------- 2 1.0 4.1 0 1
+ 0.60016 2 3 tcp 40 ------- 2 1.0 4.1 0 1
- 0.60032 2 3 tcp 40 ------- 2 1.0 4.1 0 1
r 0.70032 2 3 tcp 40 ------- 1 0.0 4.0 0 0
+ 0.70032 3 4 tcp 40 ------- 1 0.0 4.0 0 0
- 0.70032 3 4 tcp 40 ------- 1 0.0 4.0 0 0
r 0.70048 2 3 tcp 40 ------- 2 1.0 4.1 0 1
+ 0.70048 3 4 tcp 40 ------- 2 1.0 4.1 0 1
- 0.70192 3 4 tcp 40 ------- 2 1.0 4.1 0 1
r 0.80192 3 4 tcp 40 ------- 1 0.0 4.0 0 0
+ 0.80192 4 3 ack 40 ------- 1 4.0 0.0 0 2
- 0.80192 4 3 ack 40 ------- 1 4.0 0.0 0 2
r 0.80352 3 4 tcp 40 ------- 2 1.0 4.1 0 1
+ 0.80352 4 3 ack 40 ------- 2 4.1 1.0 0 3
- 0.80352 4 3 ack 40 ------- 2 4.1 1.0 0 3
r 0.90352 4 3 ack 40 ------- 1 4.0 0.0 0 2
+ 0.90352 3 2 ack 40 ------- 1 4.0 0.0 0 2
- 0.90352 3 2 ack 40 ------- 1 4.0 0.0 0 2
r 0.90512 4 3 ack 40 ------- 2 4.1 1.0 0 3
+ 0.90512 3 2 ack 40 ------- 2 4.1 1.0 0 3
- 0.90512 3 2 ack 40 ------- 2 4.1 1.0 0 3
r 1.00368 3 2 ack 40 ------- 1 4.0 0.0 0 2
+ 1.00368 2 0 ack 40 ------- 1 4.0 0.0 0 2
- 1.00368 2 0 ack 40 ------- 1 4.0 0.0 0 2
r 1.00528 3 2 ack 40 ------- 2 4.1 1.0 0 3
+ 1.00528 2 1 ack 40 ------- 2 4.1 1.0 0 3
- 1.00528 2 1 ack 40 ------- 2 4.1 1.0 0 3
r 1.10384 2 0 ack 40 ------- 1 4.0 0.0 0 2
+ 1.10384 0 2 tcp 1040 ------- 1 0.0 4.0 1 4
- 1.10384 0 2 tcp 1040 ------- 1 0.0 4.0 1 4
+ 1.10384 0 2 tcp 1040 ------- 1 0.0 4.0 2 5
r 1.10544 2 1 ack 40 ------- 2 4.1 1.0 0 3
+ 1.10544 1 2 tcp 1040 ------- 2 1.0 4.1 1 6
- 1.10544 1 2 tcp 1040 ------- 2 1.0 4.1 1 6
+ 1.10544 1 2 tcp 1040 ------- 2 1.0 4.1 2 7
- 1.108 0 2 tcp 1040 ------- 1 0.0 4.0 2 5
- 1.1096 1 2 tcp 1040 ------- 2 1.0 4.1 2 7
r 1.208 0 2 tcp 1040 ------- 1 0.0 4.0 1 4
+ 1.208 2 3 tcp 1040 ------- 1 0.0 4.0 1 4
- 1.208 2 3 tcp 1040 ------- 1 0.0 4.0 1 4
r 1.2096 1 2 tcp 1040 ------- 2 1.0 4.1 1 6
+ 1.2096 2 3 tcp 1040 ------- 2 1.0 4.1 1 6
r 1.21216 0 2 tcp 1040 ------- 1 0.0 4.0 2 5
+ 1.21216 2 3 tcp 1040 ------- 1 0.0 4.0 2 5
- 1.21216 2 3 tcp 1040 ------- 2 1.0 4.1 1 6
r 1.21376 1 2 tcp 1040 ------- 2 1.0 4.1 2 7
+ 1.21376 2 3 tcp 1040 ------- 2 1.0 4.1 2 7
- 1.21632 2 3 tcp 1040 ------- 1 0.0 4.0 2 5
- 1.22048 2 3 tcp 1040 ------- 2 1.0 4.1 2 7
r 1.31216 2 3 tcp 1040 ------- 1 0.0 4.0 1 4
+ 1.31216 3 4 tcp 1040 ------- 1 0.0 4.0 1 4
- 1.31216 3 4 tcp 1040 ------- 1 0.0 4.0 1 4
r 1.31632 2 3 tcp 1040 ------- 2 1.0 4.1 1 6
+ 1.31632 3 4 tcp 1040 ------- 2 1.0 4.1 1 6
r 1.32048 2 3 tcp 1040 ------- 1 0.0 4.0 2 5
+ 1.32048 3 4 tcp 1040 ------- 1 0.0 4.0 2 5
r 1.32464 2 3 tcp 1040 ------- 2 1.0 4.1 2 7
+ 1.32464 3 4 tcp 1040 ------- 2 1.0 4.1 2 7
- 1.35376 3 4 tcp 1040 ------- 2 1.0 4.1 1 6
- 1.39536 3 4 tcp 1040 ------- 1 0.0 4.0 2 5
- 1.43696 3 4 tcp 1040 ------- 2 1.0 4.1 2 7
r 1.45376 3 4 tcp 1040 ------- 1 0.0 4.0 1 4
+ 1.45376 4 3 ack 40 ------- 1 4.0 0.0 1 8
- 1.45376 4 3 ack 40 ------- 1 4.0 0.0 1 8
r 1.49536 3 4 tcp 1040 ------- 2 1.0 4.1 1 6
+ 1.49536 4 3 ack 40 ------- 2 4.1 1.0 1 9
- 1.49536 4 3 ack 40 ------- 2 4.1 1.0 1 9
r 1.53696 3 4 tcp 1040 ------- 1 0.0 4.0 2 5
+ 1.53696 4 3 ack 40 ------- 1 4.0 0.0 2 10
- 1.53696 4 3 ack 40 ------- 1 4.0 0.0 2 10
r 1.55536 4 3 ack 40 ------- 1 4.0 0.0 1 8
+ 1.55536 3 2 ack 40 ------- 1 4.0 0.0 1 8
- 1.55536 3 2 ack 40 ------- 1 4.0 0.0 1 8
r 1.57856 3 4 tcp 1040 ------- 2 1.0 4.1 2 7
+ 1.57856 4 3 ack 40 ------- 2 4.1 1.0 2 11
- 1.57856 4 3 ack 40 ------- 2 4.1 1.0 2 11
r 1.59696 4 3 ack 40 ------- 2 4.1 1.0 1 9
+ 1.59696 3 2 ack 40 ------- 2 4.1 1.0 1 9
- 1.59696 3 2 ack 40 ------- 2 4.1 1.0 1 9
r 1.63856 4 3 ack 40 ------- 1 4.0 0.0 2 10
+ 1.63856 3 2 ack 40 ------- 1 4.0 0.0 2 10
- 1.63856 3 2 ack 40 ------- 1 4.0 0.0 2 10
r 1.65552 3 2 ack 40 ------- 1 4.0 0.0 1 8
+ 1.65552 2 0 ack 40 ------- 1 4.0 0.0 1 8
- 1.65552 2 0 ack 40 ------- 1 4.0 0.0 1 8
r 1.68016 4 3 ack 40 ------- 2 4.1 1.0 2 11
+ 1.68016 3 2 ack 40 ------- 2 4.1 1.0 2 11
- 1.68016 3 2 ack 40 ------- 2 4.1 1.0 2 11
r 1.69712 3 2 ack 40 ------- 2 4.1 1.0 1 9
+ 1.69712 2 1 ack 40 ------- 2 4.1 1.0 1 9
- 1.69712 2 1 ack 40 ------- 2 4.1 1.0 1 9
r 1.73872 3 2 ack 40 ------- 1 4.0 0.0 2 10
+ 1.73872 2 0 ack 40 ------- 1 4.0 0.0 2 10
- 1.73872 2 0 ack 40 ------- 1 4.0 0.0 2 10
r 1.75568 2 0 ack 40 ------- 1 4.0 0.0 1 8
+ 1.75568 0 2 tcp 1040 ------- 1 0.0 4.0 3 12
- 1.75568 0 2 tcp 1040 ------- 1 0.0 4.0 3 12
+ 1.75568 0 2 tcp 1040 ------- 1 0.0 4.0 4 13
- 1.75984 0 2 tcp 1040 ------- 1 0.0 4.0 4 13
r 1.78032 3 2 ack 40 ------- 2 4.1 1.0 2 11
+ 1.78032 2 1 ack 40 ------- 2 4.1 1.0 2 11
- 1.78032 2 1 ack 40 ------- 2 4.1 1.0 2 11
r 1.79728 2 1 ack 40 ------- 2 4.1 1.0 1 9
+ 1.79728 1 2 tcp 1040 ------- 2 1.0 4.1 3 14
- 1.79728 1 2 tcp 1040 ------- 2 1.0 4.1 3 14
+ 1.79728 1 2 tcp 1040 ------- 2 1.0 4.1 4 15
- 1.80144 1 2 tcp 1040 ------- 2 1.0 4.1 4 15
r 1.83888 2 0 ack 40 ------- 1 4.0 0.0 2 10
+ 1.83888 0 2 tcp 1040 ------- 1 0.0 4.0 5 16
- 1.83888 0 2 tcp 1040 ------- 1 0.0 4.0 5 16
+ 1.83888 0 2 tcp 1040 ------- 1 0.0 4.0 6 17
- 1.84304 0 2 tcp 1040 ------- 1 0.0 4.0 6 17
r 1.85984 0 2 tcp 1040 ------- 1 0.0 4.0 3 12
+ 1.85984 2 3 tcp 1040 ------- 1 0.0 4.0 3 12
- 1.85984 2 3 tcp 1040 ------- 1 0.0 4.0 3 12
r 1.864 0 2 tcp 1040 ------- 1 0.0 4.0 4 13
+ 1.864 2 3 tcp 1040 ------- 1 0.0 4.0 4 13
- 1.864 2 3 tcp 1040 ------- 1 0.0 4.0 4 13
r 1.88048 2 1 ack 40 ------- 2 4.1 1.0 2 11
+ 1.88048 1 2 tcp 1040 ------- 2 1.0 4.1 5 18
- 1.88048 1 2 tcp 1040 ------- 2 1.0 4.1 5 18
+ 1.88048 1 2 tcp 1040 ------- 2 1.0 4.1 6 19
- 1.88464 1 2 tcp 1040 ------- 2 1.0 4.1 6 19
r 1.90144 1 2 tcp 1040 ------- 2 1.0 4.1 3 14
+ 1.90144 2 3 tcp 1040 ------- 2 1.0 4.1 3 14
- 1.90144 2 3 tcp 1040 ------- 2 1.0 4.1 3 14
r 1.9056 1 2 tcp 1040 ------- 2 1.0 4.1 4 15
+ 1.9056 2 3 tcp 1040 ------- 2 1.0 4.1 4 15
- 1.9056 2 3 tcp 1040 ------- 2 1.0 4.1 4 15
r 1.94304 0 2 tcp 1040 ------- 1 0.0 4.0 5 16
+ 1.94304 2 3 tcp 1040 ------- 1 0.0 4.0 5 16
- 1.94304 2 3 tcp 1040 ------- 1 0.0 4.0 5 16
r 1.9472 0 2 tcp 1040 ------- 1 0.0 4.0 6 17
+ 1.9472 2 3 tcp 1040 ------- 1 0.0 4.0 6 17
- 1.9472 2 3 tcp 1040 ------- 1 0.0 4.0 6 17
r 1.964 2 3 tcp 1040 ------- 1 0.0 4.0 3 12
+ 1.964 3 4 tcp 1040 ------- 1 0.0 4.0 3 12
- 1.964 3 4 tcp 1040 ------- 1 0.0 4.0 3 12
r 1.96816 2 3 tcp 1040 ------- 1 0.0 4.0 4 13
+ 1.96816 3 4 tcp 1040 ------- 1 0.0 4.0 4 13
r 1.98464 1 2 tcp 1040 ------- 2 1.0 4.1 5 18
+ 1.98464 2 3 tcp 1040 ------- 2 1.0 4.1 5 18
- 1.98464 2 3 tcp 1040 ------- 2 1.0 4.1 5 18
r 1.9888 1 2 tcp 1040 ------- 2 1.0 4.1 6 19
+ 1.9888 2 3 tcp 1040 ------- 2 1.0 4.1 6 19
- 1.9888 2 3 tcp 1040 ------- 2 1.0 4.1 6 19
r 2.0056 2 3 tcp 1040 ------- 2 1.0 4.1 3 14
+ 2.0056 3 4 tcp 1040 ------- 2 1.0 4.1 3 14
- 2.0056 3 4 tcp 1040 ------- 1 0.0 4.0 4 13
r 2.00976 2 3 tcp 1040 ------- 2 1.0 4.1 4 15
+ 2.00976 3 4 tcp 1040 ------- 2 1.0 4.1 4 15
r 2.0472 2 3 tcp 1040 ------- 1 0.0 4.0 5 16
+ 2.0472 3 4 tcp 1040 ------- 1 0.0 4.0 5 16
- 2.0472 3 4 tcp 1040 ------- 2 1.0 4.1 3 14
r 2.05136 2 3 tcp 1040 ------- 1 0.0 4.0 6 17
+ 2.05136 3 4 tcp 1040 ------- 1 0.0 4.0 6 17
- 2.0888 3 4 tcp 1040 ------- 2 1.0 4.1 4 15
r 2.0888 2 3 tcp 1040 ------- 2 1.0 4.1 5 18
+ 2.0888 3 4 tcp 1040 ------- 2 1.0 4.1 5 18
r 2.09296 2 3 tcp 1040 ------- 2 1.0 4.1 6 19
+ 2.09296 3 4 tcp 1040 ------- 2 1.0 4.1 6 19
r 2.1056 3 4 tcp 1040 ------- 1 0.0 4.0 3 12
+ 2.1056 4 3 ack 40 ------- 1 4.0 0.0 3 20
- 2.1056 4 3 ack 40 ------- 1 4.0 0.0 3 20
- 2.1304 3 4 tcp 1040 ------- 1 0.0 4.0 5 16
r 2.1472 3 4 tcp 1040 ------- 1 0.0 4.0 4 13
+ 2.1472 4 3 ack 40 ------- 1 4.0 0.0 4 21
- 2.1472 4 3 ack 40 ------- 1 4.0 0.0 4 21
- 2.172 3 4 tcp 1040 ------- 1 0.0 4.0 6 17
r 2.1888 3 4 tcp 1040 ------- 2 1.0 4.1 3 14
+ 2.1888 4 3 ack 40 ------- 2 4.1 1.0 3 22
- 2.1888 4 3 ack 40 ------- 2 4.1 1.0 3 22
r 2.2072 4 3 ack 40 ------- 1 4.0 0.0 3 20
+ 2.2072 3 2 ack 40 ------- 1 4.0 0.0 3 20
- 2.2072 3 2 ack 40 ------- 1 4.0 0.0 3 20
- 2.2136 3 4 tcp 1040 ------- 2 1.0 4.1 5 18
r 2.2304 3 4 tcp 1040 ------- 2 1.0 4.1 4 15
+ 2.2304 4 3 ack 40 ------- 2 4.1 1.0 4 23
- 2.2304 4 3 ack 40 ------- 2 4.1 1.0 4 23
r 2.2488 4 3 ack 40 ------- 1 4.0 0.0 4 21
+ 2.2488 3 2 ack 40 ------- 1 4.0 0.0 4 21
- 2.2488 3 2 ack 40 ------- 1 4.0 0.0 4 21
- 2.2552 3 4 tcp 1040 ------- 2 1.0 4.1 6 19
r 2.272 3 4 tcp 1040 ------- 1 0.0 4.0 5 16
+ 2.272 4 3 ack 40 ------- 1 4.0 0.0 5 24
- 2.272 4 3 ack 40 ------- 1 4.0 0.0 5 24
r 2.2904 4 3 ack 40 ------- 2 4.1 1.0 3 22
+ 2.2904 3 2 ack 40 ------- 2 4.1 1.0 3 22
- 2.2904 3 2 ack 40 ------- 2 4.1 1.0 3 22
r 2.30736 3 2 ack 40 ------- 1 4.0 0.0 3 20
+ 2.30736 2 0 ack 40 ------- 1 4.0 0.0 3 20
- 2.30736 2 0 ack 40 ------- 1 4.0 0.0 3 20
r 2.3136 3 4 tcp 1040 ------- 1 0.0 4.0 6 17
+ 2.3136 4 3 ack 40 ------- 1 4.0 0.0 6 25
- 2.3136 4 3 ack 40 ------- 1 4.0 0.0 6 25
r 2.332 4 3 ack 40 ------- 2 4.1 1.0 4 23
+ 2.332 3 2 ack 40 ------- 2 4.1 1.0 4 23
- 2.332 3 2 ack 40 ------- 2 4.1 1.0 4 23
r 2.34896 3 2 ack 40 ------- 1 4.0 0.0 4 21
+ 2.34896 2 0 ack 40 ------- 1 4.0 0.0 4 21
- 2.34896 2 0 ack 40 ------- 1 4.0 0.0 4 21
r 2.3552 3 4 tcp 1040 ------- 2 1.0 4.1 5 18
+ 2.3552 4 3 ack 40 ------- 2 4.1 1.0 5 26
- 2.3552 4 3 ack 40 ------- 2 4.1 1.0 5 26
r 2.3736 4 3 ack 40 ------- 1 4.0 0.0 5 24
+ 2.3736 3 2 ack 40 ------- 1 4.0 0.0 5 24
- 2.3736 3 2 ack 40 ------- 1 4.0 0.0 5 24
r 2.39056 3 2 ack 40 ------- 2 4.1 1.0 3 22
+ 2.39056 2 1 ack 40 ------- 2 4.1 1.0 3 22
- 2.39056 2 1 ack 40 ------- 2 4.1 1.0 3 22
r 2.3968 3 4 tcp 1040 ------- 2 1.0 4.1 6 19
+ 2.3968 4 3 ack 40 ------- 2 4.1 1.0 6 27
- 2.3968 4 3 ack 40 ------- 2 4.1 1.0 6 27
r 2.40752 2 0 ack 40 ------- 1 4.0 0.0 3 20
+ 2.40752 0 2 tcp 1040 ------- 1 0.0 4.0 7 28
- 2.40752 0 2 tcp 1040 ------- 1 0.0 4.0 7 28
+ 2.40752 0 2 tcp 1040 ------- 1 0.0 4.0 8 29
- 2.41168 0 2 tcp 1040 ------- 1 0.0 4.0 8 29
r 2.4152 4 3 ack 40 ------- 1 4.0 0.0 6 25
+ 2.4152 3 2 ack 40 ------- 1 4.0 0.0 6 25
- 2.4152 3 2 ack 40 ------- 1 4.0 0.0 6 25
r 2.43216 3 2 ack 40 ------- 2 4.1 1.0 4 23
+ 2.43216 2 1 ack 40 ------- 2 4.1 1.0 4 23
- 2.43216 2 1 ack 40 ------- 2 4.1 1.0 4 23
r 2.44912 2 0 ack 40 ------- 1 4.0 0.0 4 21
+ 2.44912 0 2 tcp 1040 ------- 1 0.0 4.0 9 30
- 2.44912 0 2 tcp 1040 ------- 1 0.0 4.0 9 30
+ 2.44912 0 2 tcp 1040 ------- 1 0.0 4.0 10 31
- 2.45328 0 2 tcp 1040 ------- 1 0.0 4.0 10 31
r 2.4568 4 3 ack 40 ------- 2 4.1 1.0 5 26
+ 2.4568 3 2 ack 40 ------- 2 4.1 1.0 5 26
- 2.4568 3 2 ack 40 ------- 2 4.1 1.0 5 26
r 2.47376 3 2 ack 40 ------- 1 4.0 0.0 5 24
+ 2.47376 2 0 ack 40 ------- 1 4.0 0.0 5 24
- 2.47376 2 0 ack 40 ------- 1 4.0 0.0 5 24
r 2.49072 2 1 ack 40 ------- 2 4.1 1.0 3 22
+ 2.49072 1 2 tcp 1040 ------- 2 1.0 4.1 7 32
- 2.49072 1 2 tcp 1040 ------- 2 1.0 4.1 7 32
+ 2.49072 1 2 tcp 1040 ------- 2 1.0 4.1 8 33
- 2.49488 1 2 tcp 1040 ------- 2 1.0 4.1 8 33
r 2.4984 4 3 ack 40 ------- 2 4.1 1.0 6 27
+ 2.4984 3 2 ack 40 ------- 2 4.1 1.0 6 27
- 2.4984 3 2 ack 40 ------- 2 4.1 1.0 6 27
r 2.51168 0 2 tcp 1040 ------- 1 0.0 4.0 7 28
+ 2.51168 2 3 tcp 1040 ------- 1 0.0 4.0 7 28
- 2.51168 2 3 tcp 1040 ------- 1 0.0 4.0 7 28
r 2.51536 3 2 ack 40 ------- 1 4.0 0.0 6 25
+ 2.51536 2 0 ack 40 ------- 1 4.0 0.0 6 25
- 2.51536 2 0 ack 40 ------- 1 4.0 0.0 6 25
r 2.51584 0 2 tcp 1040 ------- 1 0.0 4.0 8 29
+ 2.51584 2 3 tcp 1040 ------- 1 0.0 4.0 8 29
- 2.51584 2 3 tcp 1040 ------- 1 0.0 4.0 8 29
r 2.53232 2 1 ack 40 ------- 2 4.1 1.0 4 23
+ 2.53232 1 2 tcp 1040 ------- 2 1.0 4.1 9 34
- 2.53232 1 2 tcp 1040 ------- 2 1.0 4.1 9 34
+ 2.53232 1 2 tcp 1040 ------- 2 1.0 4.1 10 35
- 2.53648 1 2 tcp 1040 ------- 2 1.0 4.1 10 35
r 2.55328 0 2 tcp 1040 ------- 1 0.0 4.0 9 30
+ 2.55328 2 3 tcp 1040 ------- 1 0.0 4.0 9 30
- 2.55328 2 3 tcp 1040 ------- 1 0.0 4.0 9 30
r 2.55696 3 2 ack 40 ------- 2 4.1 1.0 5 26
+ 2.55696 2 1 ack 40 ------- 2 4.1 1.0 5 26
- 2.55696 2 1 ack 40 ------- 2 4.1 1.0 5 26
r 2.55744 0 2 tcp 1040 ------- 1 0.0 4.0 10 31
+ 2.55744 2 3 tcp 1040 ------- 1 0.0 4.0 10 31
- 2.55744 2 3 tcp 1040 ------- 1 0.0 4.0 10 31
r 2.57392 2 0 ack 40 ------- 1 4.0 0.0 5 24
+ 2.57392 0 2 tcp 1040 ------- 1 0.0 4.0 11 36
- 2.57392 0 2 tcp 1040 ------- 1 0.0 4.0 11 36
+ 2.57392 0 2 tcp 1040 ------- 1 0.0 4.0 12 37
- 2.57808 0 2 tcp 1040 ------- 1 0.0 4.0 12 37
r 2.59488 1 2 tcp 1040 ------- 2 1.0 4.1 7 32
+ 2.59488 2 3 tcp 1040 ------- 2 1.0 4.1 7 32
- 2.59488 2 3 tcp 1040 ------- 2 1.0 4.1 7 32
r 2.59856 3 2 ack 40 ------- 2 4.1 1.0 6 27
+ 2.59856 2 1 ack 40 ------- 2 4.1 1.0 6 27
- 2.59856 2 1 ack 40 ------- 2 4.1 1.0 6 27
r 2.59904 1 2 tcp 1040 ------- 2 1.0 4.1 8 33
+ 2.59904 2 3 tcp 1040 ------- 2 1.0 4.1 8 33
- 2.59904 2 3 tcp 1040 ------- 2 1.0 4.1 8 33
r 2.61552 2 0 ack 40 ------- 1 4.0 0.0 6 25
+ 2.61552 0 2 tcp 1040 ------- 1 0.0 4.0 13 38
- 2.61552 0 2 tcp 1040 ------- 1 0.0 4.0 13 38
+ 2.61552 0 2 tcp 1040 ------- 1 0.0 4.0 14 39
r 2.61584 2 3 tcp 1040 ------- 1 0.0 4.0 7 28
+ 2.61584 3 4 tcp 1040 ------- 1 0.0 4.0 7 28
- 2.61584 3 4 tcp 1040 ------- 1 0.0 4.0 7 28
- 2.61968 0 2 tcp 1040 ------- 1 0.0 4.0 14 39
r 2.62 2 3 tcp 1040 ------- 1 0.0 4.0 8 29
+ 2.62 3 4 tcp 1040 ------- 1 0.0 4.0 8 29
r 2.63648 1 2 tcp 1040 ------- 2 1.0 4.1 9 34
+ 2.63648 2 3 tcp 1040 ------- 2 1.0 4.1 9 34
- 2.63648 2 3 tcp 1040 ------- 2 1.0 4.1 9 34
r 2.64064 1 2 tcp 1040 ------- 2 1.0 4.1 10 35
+ 2.64064 2 3 tcp 1040 ------- 2 1.0 4.1 10 35
- 2.64064 2 3 tcp 1040 ------- 2 1.0 4.1 10 35
r 2.65712 2 1 ack 40 ------- 2 4.1 1.0 5 26
+ 2.65712 1 2 tcp 1040 ------- 2 1.0 4.1 11 40
- 2.65712 1 2 tcp 1040 ------- 2 1.0 4.1 11 40
+ 2.65712 1 2 tcp 1040 ------- 2 1.0 4.1 12 41
r 2.65744 2 3 tcp 1040 ------- 1 0.0 4.0 9 30
+ 2.65744 3 4 tcp 1040 ------- 1 0.0 4.0 9 30
- 2.65744 3 4 tcp 1040 ------- 1 0.0 4.0 8 29
- 2.66128 1 2 tcp 1040 ------- 2 1.0 4.1 12 41
r 2.6616 2 3 tcp 1040 ------- 1 0.0 4.0 10 31
+ 2.6616 3 4 tcp 1040 ------- 1 0.0 4.0 10 31
r 2.67808 0 2 tcp 1040 ------- 1 0.0 4.0 11 36
+ 2.67808 2 3 tcp 1040 ------- 1 0.0 4.0 11 36
- 2.67808 2 3 tcp 1040 ------- 1 0.0 4.0 11 36
r 2.68224 0 2 tcp 1040 ------- 1 0.0 4.0 12 37
+ 2.68224 2 3 tcp 1040 ------- 1 0.0 4.0 12 37
- 2.68224 2 3 tcp 1040 ------- 1 0.0 4.0 12 37
r 2.69872 2 1 ack 40 ------- 2 4.1 1.0 6 27
+ 2.69872 1 2 tcp 1040 ------- 2 1.0 4.1 13 42
- 2.69872 1 2 tcp 1040 ------- 2 1.0 4.1 13 42
+ 2.69872 1 2 tcp 1040 ------- 2 1.0 4.1 14 43
r 2.69904 2 3 tcp 1040 ------- 2 1.0 4.1 7 32
+ 2.69904 3 4 tcp 1040 ------- 2 1.0 4.1 7 32
- 2.69904 3 4 tcp 1040 ------- 1 0.0 4.0 9 30
- 2.70288 1 2 tcp 1040 ------- 2 1.0 4.1 14 43
r 2.7032 2 3 tcp 1040 ------- 2 1.0 4.1 8 33
+ 2.7032 3 4 tcp 1040 ------- 2 1.0 4.1 8 33
r 2.71968 0 2 tcp 1040 ------- 1 0.0 4.0 13 38
+ 2.71968 2 3 tcp 1040 ------- 1 0.0 4.0 13 38
- 2.71968 2 3 tcp 1040 ------- 1 0.0 4.0 13 38
r 2.72384 0 2 tcp 1040 ------- 1 0.0 4.0 14 39
+ 2.72384 2 3 tcp 1040 ------- 1 0.0 4.0 14 39
- 2.72384 2 3 tcp 1040 ------- 1 0.0 4.0 14 39
r 2.74064 2 3 tcp 1040 ------- 2 1.0 4.1 9 34
+ 2.74064 3 4 tcp 1040 ------- 2 1.0 4.1 9 34
- 2.74064 3 4 tcp 1040 ------- 1 0.0 4.0 10 31
r 2.7448 2 3 tcp 1040 ------- 2 1.0 4.1 10 35
+ 2.7448 3 4 tcp 1040 ------- 2 1.0 4.1 10 35
r 2.75744 3 4 tcp 1040 ------- 1 0.0 4.0 7 28
+ 2.75744 4 3 ack 40 ------- 1 4.0 0.0 7 44
- 2.75744 4 3 ack 40 ------- 1 4.0 0.0 7 44
r 2.76128 1 2 tcp 1040 ------- 2 1.0 4.1 11 40
+ 2.76128 2 3 tcp 1040 ------- 2 1.0 4.1 11 40
- 2.76128 2 3 tcp 1040 ------- 2 1.0 4.1 11 40
r 2.76544 1 2 tcp 1040 ------- 2 1.0 4.1 12 41
+ 2.76544 2 3 tcp 1040 ------- 2 1.0 4.1 12 41
- 2.76544 2 3 tcp 1040 ------- 2 1.0 4.1 12 41
r 2.78224 2 3 tcp 1040 ------- 1 0.0 4.0 11 36
+ 2.78224 3 4 tcp 1040 ------- 1 0.0 4.0 11 36
- 2.78224 3 4 tcp 1040 ------- 2 1.0 4.1 7 32
r 2.7864 2 3 tcp 1040 ------- 1 0.0 4.0 12 37
+ 2.7864 3 4 tcp 1040 ------- 1 0.0 4.0 12 37
r 2.79904 3 4 tcp 1040 ------- 1 0.0 4.0 8 29
+ 2.79904 4 3 ack 40 ------- 1 4.0 0.0 8 45
- 2.79904 4 3 ack 40 ------- 1 4.0 0.0 8 45
r 2.80288 1 2 tcp 1040 ------- 2 1.0 4.1 13 42
+ 2.80288 2 3 tcp 1040 ------- 2 1.0 4.1 13 42
- 2.80288 2 3 tcp 1040 ------- 2 1.0 4.1 13 42
r 2.80704 1 2 tcp 1040 ------- 2 1.0 4.1 14 43
+ 2.80704 2 3 tcp 1040 ------- 2 1.0 4.1 14 43
- 2.80704 2 3 tcp 1040 ------- 2 1.0 4.1 14 43
r 2.82384 2 3 tcp 1040 ------- 1 0.0 4.0 13 38
+ 2.82384 3 4 tcp 1040 ------- 1 0.0 4.0 13 38
- 2.82384 3 4 tcp 1040 ------- 2 1.0 4.1 8 33
r 2.828 2 3 tcp 1040 ------- 1 0.0 4.0 14 39
+ 2.828 3 4 tcp 1040 ------- 1 0.0 4.0 14 39
r 2.84064 3 4 tcp 1040 ------- 1 0.0 4.0 9 30
+ 2.84064 4 3 ack 40 ------- 1 4.0 0.0 9 46
- 2.84064 4 3 ack 40 ------- 1 4.0 0.0 9 46
r 2.85904 4 3 ack 40 ------- 1 4.0 0.0 7 44
+ 2.85904 3 2 ack 40 ------- 1 4.0 0.0 7 44
- 2.85904 3 2 ack 40 ------- 1 4.0 0.0 7 44
r 2.86544 2 3 tcp 1040 ------- 2 1.0 4.1 11 40
+ 2.86544 3 4 tcp 1040 ------- 2 1.0 4.1 11 40
- 2.86544 3 4 tcp 1040 ------- 2 1.0 4.1 9 34
r 2.8696 2 3 tcp 1040 ------- 2 1.0 4.1 12 41
+ 2.8696 3 4 tcp 1040 ------- 2 1.0 4.1 12 41
r 2.88224 3 4 tcp 1040 ------- 1 0.0 4.0 10 31
+ 2.88224 4 3 ack 40 ------- 1 4.0 0.0 10 47
- 2.88224 4 3 ack 40 ------- 1 4.0 0.0 10 47
r 2.90064 4 3 ack 40 ------- 1 4.0 0.0 8 45
+ 2.90064 3 2 ack 40 ------- 1 4.0 0.0 8 45
- 2.90064 3 2 ack 40 ------- 1 4.0 0.0 8 45
r 2.90704 2 3 tcp 1040 ------- 2 1.0 4.1 13 42
+ 2.90704 3 4 tcp 1040 ------- 2 1.0 4.1 13 42
- 2.90704 3 4 tcp 1040 ------- 2 1.0 4.1 10 35
r 2.9112 2 3 tcp 1040 ------- 2 1.0 4.1 14 43
+ 2.9112 3 4 tcp 1040 ------- 2 1.0 4.1 14 43
r 2.92384 3 4 tcp 1040 ------- 2 1.0 4.1 7 32
+ 2.92384 4 3 ack 40 ------- 2 4.1 1.0 7 48
- 2.92384 4 3 ack 40 ------- 2 4.1 1.0 7 48
r 2.94224 4 3 ack 40 ------- 1 4.0 0.0 9 46
+ 2.94224 3 2 ack 40 ------- 1 4.0 0.0 9 46
- 2.94224 3 2 ack 40 ------- 1 4.0 0.0 9 46
- 2.94864 3 4 tcp 1040 ------- 1 0.0 4.0 11 36
r 2.9592 3 2 ack 40 ------- 1 4.0 0.0 7 44
+ 2.9592 2 0 ack 40 ------- 1 4.0 0.0 7 44
- 2.9592 2 0 ack 40 ------- 1 4.0 0.0 7 44
r 2.96544 3 4 tcp 1040 ------- 2 1.0 4.1 8 33
+ 2.96544 4 3 ack 40 ------- 2 4.1 1.0 8 49
- 2.96544 4 3 ack 40 ------- 2 4.1 1.0 8 49
r 2.98384 4 3 ack 40 ------- 1 4.0 0.0 10 47
+ 2.98384 3 2 ack 40 ------- 1 4.0 0.0 10 47
- 2.98384 3 2 ack 40 ------- 1 4.0 0.0 10 47
- 2.99024 3 4 tcp 1040 ------- 1 0.0 4.0 12 37
r 3.0008 3 2 ack 40 ------- 1 4.0 0.0 8 45
+ 3.0008 2 0 ack 40 ------- 1 4.0 0.0 8 45
- 3.0008 2 0 ack 40 ------- 1 4.0 0.0 8 45
r 3.00704 3 4 tcp 1040 ------- 2 1.0 4.1 9 34
+ 3.00704 4 3 ack 40 ------- 2 4.1 1.0 9 50
- 3.00704 4 3 ack 40 ------- 2 4.1 1.0 9 50
r 3.02544 4 3 ack 40 ------- 2 4.1 1.0 7 48
+ 3.02544 3 2 ack 40 ------- 2 4.1 1.0 7 48
- 3.02544 3 2 ack 40 ------- 2 4.1 1.0 7 48
- 3.03184 3 4 tcp 1040 ------- 1 0.0 4.0 13 38
r 3.0424 3 2 ack 40 ------- 1 4.0 0.0 9 46
+ 3.0424 2 0 ack 40 ------- 1 4.0 0.0 9 46
- 3.0424 2 0 ack 40 ------- 1 4.0 0.0 9 46
r 3.04864 3 4 tcp 1040 ------- 2 1.0 4.1 10 35
+ 3.04864 4 3 ack 40 ------- 2 4.1 1.0 10 51
- 3.04864 4 3 ack 40 ------- 2 4.1 1.0 10 51
r 3.05936 2 0 ack 40 ------- 1 4.0 0.0 7 44
+ 3.05936 0 2 tcp 1040 ------- 1 0.0 4.0 15 52
- 3.05936 0 2 tcp 1040 ------- 1 0.0 4.0 15 52
+ 3.05936 0 2 tcp 1040 ------- 1 0.0 4.0 16 53
- 3.06352 0 2 tcp 1040 ------- 1 0.0 4.0 16 53
r 3.06704 4 3 ack 40 ------- 2 4.1 1.0 8 49
+ 3.06704 3 2 ack 40 ------- 2 4.1 1.0 8 49
- 3.06704 3 2 ack 40 ------- 2 4.1 1.0 8 49
- 3.07344 3 4 tcp 1040 ------- 1 0.0 4.0 14 39
r 3.084 3 2 ack 40 ------- 1 4.0 0.0 10 47
+ 3.084 2 0 ack 40 ------- 1 4.0 0.0 10 47
- 3.084 2 0 ack 40 ------- 1 4.0 0.0 10 47
r 3.09024 3 4 tcp 1040 ------- 1 0.0 4.0 11 36
+ 3.09024 4 3 ack 40 ------- 1 4.0 0.0 11 54
- 3.09024 4 3 ack 40 ------- 1 4.0 0.0 11 54
r 3.10096 2 0 ack 40 ------- 1 4.0 0.0 8 45
+ 3.10096 0 2 tcp 1040 ------- 1 0.0 4.0 17 55
- 3.10096 0 2 tcp 1040 ------- 1 0.0 4.0 17 55
+ 3.10096 0 2 tcp 1040 ------- 1 0.0 4.0 18 56
- 3.10512 0 2 tcp 1040 ------- 1 0.0 4.0 18 56
r 3.10864 4 3 ack 40 ------- 2 4.1 1.0 9 50
+ 3.10864 3 2 ack 40 ------- 2 4.1 1.0 9 50
- 3.10864 3 2 ack 40 ------- 2 4.1 1.0 9 50
- 3.11504 3 4 tcp 1040 ------- 2 1.0 4.1 11 40
r 3.1256 3 2 ack 40 ------- 2 4.1 1.0 7 48
+ 3.1256 2 1 ack 40 ------- 2 4.1 1.0 7 48
- 3.1256 2 1 ack 40 ------- 2 4.1 1.0 7 48
r 3.13184 3 4 tcp 1040 ------- 1 0.0 4.0 12 37
+ 3.13184 4 3 ack 40 ------- 1 4.0 0.0 12 57
- 3.13184 4 3 ack 40 ------- 1 4.0 0.0 12 57
r 3.14256 2 0 ack 40 ------- 1 4.0 0.0 9 46
+ 3.14256 0 2 tcp 1040 ------- 1 0.0 4.0 19 58
- 3.14256 0 2 tcp 1040 ------- 1 0.0 4.0 19 58
+ 3.14256 0 2 tcp 1040 ------- 1 0.0 4.0 20 59
- 3.14672 0 2 tcp 1040 ------- 1 0.0 4.0 20 59
r 3.15024 4 3 ack 40 ------- 2 4.1 1.0 10 51
+ 3.15024 3 2 ack 40 ------- 2 4.1 1.0 10 51
- 3.15024 3 2 ack 40 ------- 2 4.1 1.0 10 51
- 3.15664 3 4 tcp 1040 ------- 2 1.0 4.1 12 41
r 3.16352 0 2 tcp 1040 ------- 1 0.0 4.0 15 52
+ 3.16352 2 3 tcp 1040 ------- 1 0.0 4.0 15 52
- 3.16352 2 3 tcp 1040 ------- 1 0.0 4.0 15 52
r 3.1672 3 2 ack 40 ------- 2 4.1 1.0 8 49
+ 3.1672 2 1 ack 40 ------- 2 4.1 1.0 8 49
- 3.1672 2 1 ack 40 ------- 2 4.1 1.0 8 49
r 3.16768 0 2 tcp 1040 ------- 1 0.0 4.0 16 53
+ 3.16768 2 3 tcp 1040 ------- 1 0.0 4.0 16 53
- 3.16768 2 3 tcp 1040 ------- 1 0.0 4.0 16 53
r 3.17344 3 4 tcp 1040 ------- 1 0.0 4.0 13 38
+ 3.17344 4 3 ack 40 ------- 1 4.0 0.0 13 60
- 3.17344 4 3 ack 40 ------- 1 4.0 0.0 13 60
r 3.18416 2 0 ack 40 ------- 1 4.0 0.0 10 47
+ 3.18416 0 2 tcp 1040 ------- 1 0.0 4.0 21 61
- 3.18416 0 2 tcp 1040 ------- 1 0.0 4.0 21 61
+ 3.18416 0 2 tcp 1040 ------- 1 0.0 4.0 22 62
- 3.18832 0 2 tcp 1040 ------- 1 0.0 4.0 22 62
r 3.19184 4 3 ack 40 ------- 1 4.0 0.0 11 54
+ 3.19184 3 2 ack 40 ------- 1 4.0 0.0 11 54
- 3.19184 3 2 ack 40 ------- 1 4.0 0.0 11 54
- 3.19824 3 4 tcp 1040 ------- 2 1.0 4.1 13 42
r 3.20512 0 2 tcp 1040 ------- 1 0.0 4.0 17 55
+ 3.20512 2 3 tcp 1040 ------- 1 0.0 4.0 17 55
- 3.20512 2 3 tcp 1040 ------- 1 0.0 4.0 17 55
r 3.2088 3 2 ack 40 ------- 2 4.1 1.0 9 50
+ 3.2088 2 1 ack 40 ------- 2 4.1 1.0 9 50
- 3.2088 2 1 ack 40 ------- 2 4.1 1.0 9 50
r 3.20928 0 2 tcp 1040 ------- 1 0.0 4.0 18 56
+ 3.20928 2 3 tcp 1040 ------- 1 0.0 4.0 18 56
- 3.20928 2 3 tcp 1040 ------- 1 0.0 4.0 18 56
r 3.21504 3 4 tcp 1040 ------- 1 0.0 4.0 14 39
+ 3.21504 4 3 ack 40 ------- 1 4.0 0.0 14 63
- 3.21504 4 3 ack 40 ------- 1 4.0 0.0 14 63
r 3.22576 2 1 ack 40 ------- 2 4.1 1.0 7 48
+ 3.22576 1 2 tcp 1040 ------- 2 1.0 4.1 15 64
- 3.22576 1 2 tcp 1040 ------- 2 1.0 4.1 15 64
+ 3.22576 1 2 tcp 1040 ------- 2 1.0 4.1 16 65
- 3.22992 1 2 tcp 1040 ------- 2 1.0 4.1 16 65
r 3.23344 4 3 ack 40 ------- 1 4.0 0.0 12 57
+ 3.23344 3 2 ack 40 ------- 1 4.0 0.0 12 57
- 3.23344 3 2 ack 40 ------- 1 4.0 0.0 12 57
- 3.23984 3 4 tcp 1040 ------- 2 1.0 4.1 14 43
r 3.24672 0 2 tcp 1040 ------- 1 0.0 4.0 19 58
+ 3.24672 2 3 tcp 1040 ------- 1 0.0 4.0 19 58
- 3.24672 2 3 tcp 1040 ------- 1 0.0 4.0 19 58
r 3.2504 3 2 ack 40 ------- 2 4.1 1.0 10 51
+ 3.2504 2 1 ack 40 ------- 2 4.1 1.0 10 51
- 3.2504 2 1 ack 40 ------- 2 4.1 1.0 10 51
r 3.25088 0 2 tcp 1040 ------- 1 0.0 4.0 20 59
+ 3.25088 2 3 tcp 1040 ------- 1 0.0 4.0 20 59
- 3.25088 2 3 tcp 1040 ------- 1 0.0 4.0 20 59
r 3.25664 3 4 tcp 1040 ------- 2 1.0 4.1 11 40
+ 3.25664 4 3 ack 40 ------- 2 4.1 1.0 11 66
- 3.25664 4 3 ack 40 ------- 2 4.1 1.0 11 66
r 3.26736 2 1 ack 40 ------- 2 4.1 1.0 8 49
+ 3.26736 1 2 tcp 1040 ------- 2 1.0 4.1 17 67
- 3.26736 1 2 tcp 1040 ------- 2 1.0 4.1 17 67
+ 3.26736 1 2 tcp 1040 ------- 2 1.0 4.1 18 68
r 3.26768 2 3 tcp 1040 ------- 1 0.0 4.0 15 52
+ 3.26768 3 4 tcp 1040 ------- 1 0.0 4.0 15 52
- 3.27152 1 2 tcp 1040 ------- 2 1.0 4.1 18 68
r 3.27184 2 3 tcp 1040 ------- 1 0.0 4.0 16 53
+ 3.27184 3 4 tcp 1040 ------- 1 0.0 4.0 16 53
r 3.27504 4 3 ack 40 ------- 1 4.0 0.0 13 60
+ 3.27504 3 2 ack 40 ------- 1 4.0 0.0 13 60
- 3.27504 3 2 ack 40 ------- 1 4.0 0.0 13 60
- 3.28144 3 4 tcp 1040 ------- 1 0.0 4.0 15 52
r 3.28832 0 2 tcp 1040 ------- 1 0.0 4.0 21 61
+ 3.28832 2 3 tcp 1040 ------- 1 0.0 4.0 21 61
- 3.28832 2 3 tcp 1040 ------- 1 0.0 4.0 21 61
r 3.292 3 2 ack 40 ------- 1 4.0 0.0 11 54
+ 3.292 2 0 ack 40 ------- 1 4.0 0.0 11 54
- 3.292 2 0 ack 40 ------- 1 4.0 0.0 11 54
r 3.29248 0 2 tcp 1040 ------- 1 0.0 4.0 22 62
+ 3.29248 2 3 tcp 1040 ------- 1 0.0 4.0 22 62
- 3.29248 2 3 tcp 1040 ------- 1 0.0 4.0 22 62
r 3.29824 3 4 tcp 1040 ------- 2 1.0 4.1 12 41
+ 3.29824 4 3 ack 40 ------- 2 4.1 1.0 12 69
- 3.29824 4 3 ack 40 ------- 2 4.1 1.0 12 69
r 3.30896 2 1 ack 40 ------- 2 4.1 1.0 9 50
+ 3.30896 1 2 tcp 1040 ------- 2 1.0 4.1 19 70
- 3.30896 1 2 tcp 1040 ------- 2 1.0 4.1 19 70
+ 3.30896 1 2 tcp 1040 ------- 2 1.0 4.1 20 71
r 3.30928 2 3 tcp 1040 ------- 1 0.0 4.0 17 55
+ 3.30928 3 4 tcp 1040 ------- 1 0.0 4.0 17 55
- 3.31312 1 2 tcp 1040 ------- 2 1.0 4.1 20 71
r 3.31344 2 3 tcp 1040 ------- 1 0.0 4.0 18 56
+ 3.31344 3 4 tcp 1040 ------- 1 0.0 4.0 18 56
r 3.31664 4 3 ack 40 ------- 1 4.0 0.0 14 63
+ 3.31664 3 2 ack 40 ------- 1 4.0 0.0 14 63
- 3.31664 3 2 ack 40 ------- 1 4.0 0.0 14 63
- 3.32304 3 4 tcp 1040 ------- 1 0.0 4.0 16 53
r 3.32992 1 2 tcp 1040 ------- 2 1.0 4.1 15 64
+ 3.32992 2 3 tcp 1040 ------- 2 1.0 4.1 15 64
- 3.32992 2 3 tcp 1040 ------- 2 1.0 4.1 15 64
r 3.3336 3 2 ack 40 ------- 1 4.0 0.0 12 57
+ 3.3336 2 0 ack 40 ------- 1 4.0 0.0 12 57
- 3.3336 2 0 ack 40 ------- 1 4.0 0.0 12 57
r 3.33408 1 2 tcp 1040 ------- 2 1.0 4.1 16 65
+ 3.33408 2 3 tcp 1040 ------- 2 1.0 4.1 16 65
- 3.33408 2 3 tcp 1040 ------- 2 1.0 4.1 16 65
r 3.33984 3 4 tcp 1040 ------- 2 1.0 4.1 13 42
+ 3.33984 4 3 ack 40 ------- 2 4.1 1.0 13 72
- 3.33984 4 3 ack 40 ------- 2 4.1 1.0 13 72
r 3.35056 2 1 ack 40 ------- 2 4.1 1.0 10 51
+ 3.35056 1 2 tcp 1040 ------- 2 1.0 4.1 21 73
- 3.35056 1 2 tcp 1040 ------- 2 1.0 4.1 21 73
+ 3.35056 1 2 tcp 1040 ------- 2 1.0 4.1 22 74
r 3.35088 2 3 tcp 1040 ------- 1 0.0 4.0 19 58
+ 3.35088 3 4 tcp 1040 ------- 1 0.0 4.0 19 58
- 3.35472 1 2 tcp 1040 ------- 2 1.0 4.1 22 74
r 3.35504 2 3 tcp 1040 ------- 1 0.0 4.0 20 59
+ 3.35504 3 4 tcp 1040 ------- 1 0.0 4.0 20 59
r 3.35824 4 3 ack 40 ------- 2 4.1 1.0 11 66
+ 3.35824 3 2 ack 40 ------- 2 4.1 1.0 11 66
- 3.35824 3 2 ack 40 ------- 2 4.1 1.0 11 66
- 3.36464 3 4 tcp 1040 ------- 1 0.0 4.0 17 55
r 3.37152 1 2 tcp 1040 ------- 2 1.0 4.1 17 67
+ 3.37152 2 3 tcp 1040 ------- 2 1.0 4.1 17 67
- 3.37152 2 3 tcp 1040 ------- 2 1.0 4.1 17 67
r 3.3752 3 2 ack 40 ------- 1 4.0 0.0 13 60
+ 3.3752 2 0 ack 40 ------- 1 4.0 0.0 13 60
- 3.3752 2 0 ack 40 ------- 1 4.0 0.0 13 60
r 3.37568 1 2 tcp 1040 ------- 2 1.0 4.1 18 68
+ 3.37568 2 3 tcp 1040 ------- 2 1.0 4.1 18 68
- 3.37568 2 3 tcp 1040 ------- 2 1.0 4.1 18 68
r 3.38144 3 4 tcp 1040 ------- 2 1.0 4.1 14 43
+ 3.38144 4 3 ack 40 ------- 2 4.1 1.0 14 75
- 3.38144 4 3 ack 40 ------- 2 4.1 1.0 14 75
r 3.39216 2 0 ack 40 ------- 1 4.0 0.0 11 54
+ 3.39216 0 2 tcp 1040 ------- 1 0.0 4.0 23 76
- 3.39216 0 2 tcp 1040 ------- 1 0.0 4.0 23 76
+ 3.39216 0 2 tcp 1040 ------- 1 0.0 4.0 24 77
r 3.39248 2 3 tcp 1040 ------- 1 0.0 4.0 21 61
+ 3.39248 3 4 tcp 1040 ------- 1 0.0 4.0 21 61
- 3.39632 0 2 tcp 1040 ------- 1 0.0 4.0 24 77
r 3.39664 2 3 tcp 1040 ------- 1 0.0 4.0 22 62
+ 3.39664 3 4 tcp 1040 ------- 1 0.0 4.0 22 62
r 3.39984 4 3 ack 40 ------- 2 4.1 1.0 12 69
+ 3.39984 3 2 ack 40 ------- 2 4.1 1.0 12 69
- 3.39984 3 2 ack 40 ------- 2 4.1 1.0 12 69
- 3.40624 3 4 tcp 1040 ------- 1 0.0 4.0 18 56
r 3.41312 1 2 tcp 1040 ------- 2 1.0 4.1 19 70
+ 3.41312 2 3 tcp 1040 ------- 2 1.0 4.1 19 70
- 3.41312 2 3 tcp 1040 ------- 2 1.0 4.1 19 70
r 3.4168 3 2 ack 40 ------- 1 4.0 0.0 14 63
+ 3.4168 2 0 ack 40 ------- 1 4.0 0.0 14 63
- 3.4168 2 0 ack 40 ------- 1 4.0 0.0 14 63
r 3.41728 1 2 tcp 1040 ------- 2 1.0 4.1 20 71
+ 3.41728 2 3 tcp 1040 ------- 2 1.0 4.1 20 71
- 3.41728 2 3 tcp 1040 ------- 2 1.0 4.1 20 71
r 3.42304 3 4 tcp 1040 ------- 1 0.0 4.0 15 52
+ 3.42304 4 3 ack 40 ------- 1 4.0 0.0 15 78
- 3.42304 4 3 ack 40 ------- 1 4.0 0.0 15 78
r 3.43376 2 0 ack 40 ------- 1 4.0 0.0 12 57
+ 3.43376 0 2 tcp 1040 ------- 1 0.0 4.0 25 79
- 3.43376 0 2 tcp 1040 ------- 1 0.0 4.0 25 79
+ 3.43376 0 2 tcp 1040 ------- 1 0.0 4.0 26 80
r 3.43408 2 3 tcp 1040 ------- 2 1.0 4.1 15 64
+ 3.43408 3 4 tcp 1040 ------- 2 1.0 4.1 15 64
- 3.43792 0 2 tcp 1040 ------- 1 0.0 4.0 26 80
r 3.43824 2 3 tcp 1040 ------- 2 1.0 4.1 16 65
+ 3.43824 3 4 tcp 1040 ------- 2 1.0 4.1 16 65
r 3.44144 4 3 ack 40 ------- 2 4.1 1.0 13 72
+ 3.44144 3 2 ack 40 ------- 2 4.1 1.0 13 72
- 3.44144 3 2 ack 40 ------- 2 4.1 1.0 13 72
- 3.44784 3 4 tcp 1040 ------- 1 0.0 4.0 19 58
r 3.45472 1 2 tcp 1040 ------- 2 1.0 4.1 21 73
+ 3.45472 2 3 tcp 1040 ------- 2 1.0 4.1 21 73
- 3.45472 2 3 tcp 1040 ------- 2 1.0 4.1 21 73
r 3.4584 3 2 ack 40 ------- 2 4.1 1.0 11 66
+ 3.4584 2 1 ack 40 ------- 2 4.1 1.0 11 66
- 3.4584 2 1 ack 40 ------- 2 4.1 1.0 11 66
r 3.45888 1 2 tcp 1040 ------- 2 1.0 4.1 22 74
+ 3.45888 2 3 tcp 1040 ------- 2 1.0 4.1 22 74
- 3.45888 2 3 tcp 1040 ------- 2 1.0 4.1 22 74
r 3.46464 3 4 tcp 1040 ------- 1 0.0 4.0 16 53
+ 3.46464 4 3 ack 40 ------- 1 4.0 0.0 16 81
- 3.46464 4 3 ack 40 ------- 1 4.0 0.0 16 81
r 3.47536 2 0 ack 40 ------- 1 4.0 0.0 13 60
+ 3.47536 0 2 tcp 1040 ------- 1 0.0 4.0 27 82
- 3.47536 0 2 tcp 1040 ------- 1 0.0 4.0 27 82
+ 3.47536 0 2 tcp 1040 ------- 1 0.0 4.0 28 83
r 3.47568 2 3 tcp 1040 ------- 2 1.0 4.1 17 67
+ 3.47568 3 4 tcp 1040 ------- 2 1.0 4.1 17 67
- 3.47952 0 2 tcp 1040 ------- 1 0.0 4.0 28 83
r 3.47984 2 3 tcp 1040 ------- 2 1.0 4.1 18 68
+ 3.47984 3 4 tcp 1040 ------- 2 1.0 4.1 18 68
r 3.48304 4 3 ack 40 ------- 2 4.1 1.0 14 75
+ 3.48304 3 2 ack 40 ------- 2 4.1 1.0 14 75
- 3.48304 3 2 ack 40 ------- 2 4.1 1.0 14 75
- 3.48944 3 4 tcp 1040 ------- 1 0.0 4.0 20 59
r 3.49632 0 2 tcp 1040 ------- 1 0.0 4.0 23 76
+ 3.49632 2 3 tcp 1040 ------- 1 0.0 4.0 23 76
- 3.49632 2 3 tcp 1040 ------- 1 0.0 4.0 23 76
r 3.5 3 2 ack 40 ------- 2 4.1 1.0 12 69
+ 3.5 2 1 ack 40 ------- 2 4.1 1.0 12 69
- 3.5 2 1 ack 40 ------- 2 4.1 1.0 12 69
r 3.50048 0 2 tcp 1040 ------- 1 0.0 4.0 24 77
+ 3.50048 2 3 tcp 1040 ------- 1 0.0 4.0 24 77
- 3.50048 2 3 tcp 1040 ------- 1 0.0 4.0 24 77