V -t * -v 1.0a5 -a 0
A -t * -n 1 -p 0 -o 0x7fffffff -c 30 -a 1
A -t * -h 1 -m 1073741823 -s 0
c -t * -i 1 -n red
c -t * -i 2 -n blue
n -t * -a 4 -s 4 -S UP -v square -c black -i black
n -t * -a 0 -s 0 -S UP -v circle -c black -i black
n -t * -a 1 -s 1 -S UP -v square -c black -i black
n -t * -a 2 -s 2 -S UP -v hexagon -c black -i black
n -t * -a 3 -s 3 -S UP -v circle -c black -i black
l -t * -s 0 -d 1 -S UP -r 2000000 -D 0.050000000000000003 -c black -o right
l -t * -s 1 -d 2 -S UP -r 100000 -D 0.10000000000000001 -c black -o right
l -t * -s 2 -d 4 -S UP -r 100000 -D 0.10000000000000001 -c black -o right
l -t * -s 4 -d 3 -S UP -r 100000 -D 0.050000000000000003 -c black -o right
q -t * -s 2 -d 4 -a 0.5
q -t * -s 4 -d 2 -a 0.5
q -t * -s 4 -d 3 -a 0.5
q -t * -s 3 -d 4 -a 0.5
q -t * -s 2 -d 1 -a 0.5
q -t * -s 1 -d 2 -a 0.5
q -t * -s 1 -d 0 -a 0.5
q -t * -s 0 -d 1 -a 0.5
n -t 0 -s 0 -S DLABEL -l "Client1" -L ""
n -t 0 -s 1 -S DLABEL -l "Router1" -L ""
n -t 0 -s 2 -S DLABEL -l "Endserver1" -L ""
n -t 0 -s 4 -S DLABEL -l "Router2" -L ""
n -t 0 -s 3 -S DLABEL -l "Client2" -L ""
n -t 0.5 -s 0 -S COLOR -c green -o black -i green -I black
+ -t 0.5 -s 0 -d 1 -p tcp -e 40 -c 1 -i 0 -a 1 -x {0.0 2.0 0 ------- null}
- -t 0.5 -s 0 -d 1 -p tcp -e 40 -c 1 -i 0 -a 1 -x {0.0 2.0 0 ------- null}
h -t 0.5 -s 0 -d 1 -p tcp -e 40 -c 1 -i 0 -a 1 -x {0.0 2.0 -1 ------- null}
+ -t 0.5 -s 3 -d 4 -p tcp -e 40 -c 1 -i 1 -a 1 -x {3.0 2.1 0 ------- null}
- -t 0.5 -s 3 -d 4 -p tcp -e 40 -c 1 -i 1 -a 1 -x {3.0 2.1 0 ------- null}
h -t 0.5 -s 3 -d 4 -p tcp -e 40 -c 1 -i 1 -a 1 -x {3.0 2.1 -1 ------- null}
r -t 0.55016 -s 0 -d 1 -p tcp -e 40 -c 1 -i 0 -a 1 -x {0.0 2.0 0 ------- null}
+ -t 0.55016 -s 1 -d 2 -p tcp -e 40 -c 1 -i 0 -a 1 -x {0.0 2.0 0 ------- null}
- -t 0.55016 -s 1 -d 2 -p tcp -e 40 -c 1 -i 0 -a 1 -x {0.0 2.0 0 ------- null}
h -t 0.55016 -s 1 -d 2 -p tcp -e 40 -c 1 -i 0 -a 1 -x {0.0 2.0 -1 ------- null}
r -t 0.5532 -s 3 -d 4 -p tcp -e 40 -c 1 -i 1 -a 1 -x {3.0 2.1 0 ------- null}
+ -t 0.5532 -s 4 -d 2 -p tcp -e 40 -c 1 -i 1 -a 1 -x {3.0 2.1 0 ------- null}
- -t 0.5532 -s 4 -d 2 -p tcp -e 40 -c 1 -i 1 -a 1 -x {3.0 2.1 0 ------- null}
h -t 0.5532 -s 4 -d 2 -p tcp -e 40 -c 1 -i 1 -a 1 -x {3.0 2.1 -1 ------- null}
r -t 0.65336 -s 1 -d 2 -p tcp -e 40 -c 1 -i 0 -a 1 -x {0.0 2.0 0 ------- null}
+ -t 0.65336 -s 2 -d 1 -p ack -e 40 -c 1 -i 2 -a 1 -x {2.0 0.0 0 ------- null}
- -t 0.65336 -s 2 -d 1 -p ack -e 40 -c 1 -i 2 -a 1 -x {2.0 0.0 0 ------- null}
h -t 0.65336 -s 2 -d 1 -p ack -e 40 -c 1 -i 2 -a 1 -x {2.0 0.0 -1 ------- null}
r -t 0.6564 -s 4 -d 2 -p tcp -e 40 -c 1 -i 1 -a 1 -x {3.0 2.1 0 ------- null}
+ -t 0.6564 -s 2 -d 4 -p ack -e 40 -c 1 -i 3 -a 1 -x {2.1 3.0 0 ------- null}
- -t 0.6564 -s 2 -d 4 -p ack -e 40 -c 1 -i 3 -a 1 -x {2.1 3.0 0 ------- null}
h -t 0.6564 -s 2 -d 4 -p ack -e 40 -c 1 -i 3 -a 1 -x {2.1 3.0 -1 ------- null}
r -t 0.75656 -s 2 -d 1 -p ack -e 40 -c 1 -i 2 -a 1 -x {2.0 0.0 0 ------- null}
+ -t 0.75656 -s 1 -d 0 -p ack -e 40 -c 1 -i 2 -a 1 -x {2.0 0.0 0 ------- null}
- -t 0.75656 -s 1 -d 0 -p ack -e 40 -c 1 -i 2 -a 1 -x {2.0 0.0 0 ------- null}
h -t 0.75656 -s 1 -d 0 -p ack -e 40 -c 1 -i 2 -a 1 -x {2.0 0.0 -1 ------- null}
r -t 0.7596 -s 2 -d 4 -p ack -e 40 -c 1 -i 3 -a 1 -x {2.1 3.0 0 ------- null}
+ -t 0.7596 -s 4 -d 3 -p ack -e 40 -c 1 -i 3 -a 1 -x {2.1 3.0 0 ------- null}
- -t 0.7596 -s 4 -d 3 -p ack -e 40 -c 1 -i 3 -a 1 -x {2.1 3.0 0 ------- null}
h -t 0.7596 -s 4 -d 3 -p ack -e 40 -c 1 -i 3 -a 1 -x {2.1 3.0 -1 ------- null}
r -t 0.80672 -s 1 -d 0 -p ack -e 40 -c 1 -i 2 -a 1 -x {2.0 0.0 0 ------- null}
+ -t 0.80672 -s 0 -d 1 -p tcp -e 1040 -c 1 -i 4 -a 1 -x {0.0 2.0 1 ------- null}
- -t 0.80672 -s 0 -d 1 -p tcp -e 1040 -c 1 -i 4 -a 1 -x {0.0 2.0 1 ------- null}
h -t 0.80672 -s 0 -d 1 -p tcp -e 1040 -c 1 -i 4 -a 1 -x {0.0 2.0 -1 ------- null}
+ -t 0.80672 -s 0 -d 1 -p tcp -e 1040 -c 1 -i 5 -a 1 -x {0.0 2.0 2 ------- null}
- -t 0.81088 -s 0 -d 1 -p tcp -e 1040 -c 1 -i 5 -a 1 -x {0.0 2.0 2 ------- null}
h -t 0.81088 -s 0 -d 1 -p tcp -e 1040 -c 1 -i 5 -a 1 -x {0.0 2.0 -1 ------- null}
r -t 0.8128 -s 4 -d 3 -p ack -e 40 -c 1 -i 3 -a 1 -x {2.1 3.0 0 ------- null}
+ -t 0.8128 -s 3 -d 4 -p tcp -e 1040 -c 1 -i 6 -a 1 -x {3.0 2.1 1 ------- null}
- -t 0.8128 -s 3 -d 4 -p tcp -e 1040 -c 1 -i 6 -a 1 -x {3.0 2.1 1 ------- null}
h -t 0.8128 -s 3 -d 4 -p tcp -e 1040 -c 1 -i 6 -a 1 -x {3.0 2.1 -1 ------- null}
+ -t 0.8128 -s 3 -d 4 -p tcp -e 1040 -c 1 -i 7 -a 1 -x {3.0 2.1 2 ------- null}
r -t 0.86088 -s 0 -d 1 -p tcp -e 1040 -c 1 -i 4 -a 1 -x {0.0 2.0 1 ------- null}
+ -t 0.86088 -s 1 -d 2 -p tcp -e 1040 -c 1 -i 4 -a 1 -x {0.0 2.0 1 ------- null}
- -t 0.86088 -s 1 -d 2 -p tcp -e 1040 -c 1 -i 4 -a 1 -x {0.0 2.0 1 ------- null}
h -t 0.86088 -s 1 -d 2 -p tcp -e 1040 -c 1 -i 4 -a 1 -x {0.0 2.0 -1 ------- null}
r -t 0.86504 -s 0 -d 1 -p tcp -e 1040 -c 1 -i 5 -a 1 -x {0.0 2.0 2 ------- null}
+ -t 0.86504 -s 1 -d 2 -p tcp -e 1040 -c 1 -i 5 -a 1 -x {0.0 2.0 2 ------- null}
- -t 0.896 -s 3 -d 4 -p tcp -e 1040 -c 1 -i 7 -a 1 -x {3.0 2.1 2 ------- null}
h -t 0.896 -s 3 -d 4 -p tcp -e 1040 -c 1 -i 7 -a 1 -x {3.0 2.1 -1 ------- null}
- -t 0.94408 -s 1 -d 2 -p tcp -e 1040 -c 1 -i 5 -a 1 -x {0.0 2.0 2 ------- null}
h -t 0.94408 -s 1 -d 2 -p tcp -e 1040 -c 1 -i 5 -a 1 -x {0.0 2.0 -1 ------- null}
r -t 0.946 -s 3 -d 4 -p tcp -e 1040 -c 1 -i 6 -a 1 -x {3.0 2.1 1 ------- null}
+ -t 0.946 -s 4 -d 2 -p tcp -e 1040 -c 1 -i 6 -a 1 -x {3.0 2.1 1 ------- null}
- -t 0.946 -s 4 -d 2 -p tcp -e 1040 -c 1 -i 6 -a 1 -x {3.0 2.1 1 ------- null}
h -t 0.946 -s 4 -d 2 -p tcp -e 1040 -c 1 -i 6 -a 1 -x {3.0 2.1 -1 ------- null}
r -t 1.0292 -s 3 -d 4 -p tcp -e 1040 -c 1 -i 7 -a 1 -x {3.0 2.1 2 ------- null}
+ -t 1.0292 -s 4 -d 2 -p tcp -e 1040 -c 1 -i 7 -a 1 -x {3.0 2.1 2 ------- null}
- -t 1.0292 -s 4 -d 2 -p tcp -e 1040 -c 1 -i 7 -a 1 -x {3.0 2.1 2 ------- null}
h -t 1.0292 -s 4 -d 2 -p tcp -e 1040 -c 1 -i 7 -a 1 -x {3.0 2.1 -1 ------- null}
r -t 1.04408 -s 1 -d 2 -p tcp -e 1040 -c 1 -i 4 -a 1 -x {0.0 2.0 1 ------- null}
+ -t 1.04408 -s 2 -d 1 -p ack -e 40 -c 1 -i 8 -a 1 -x {2.0 0.0 1 ------- null}
- -t 1.04408 -s 2 -d 1 -p ack -e 40 -c 1 -i 8 -a 1 -x {2.0 0.0 1 ------- null}
h -t 1.04408 -s 2 -d 1 -p ack -e 40 -c 1 -i 8 -a 1 -x {2.0 0.0 -1 ------- null}
r -t 1.12728 -s 1 -d 2 -p tcp -e 1040 -c 1 -i 5 -a 1 -x {0.0 2.0 2 ------- null}
+ -t 1.12728 -s 2 -d 1 -p ack -e 40 -c 1 -i 9 -a 1 -x {2.0 0.0 2 ------- null}
- -t 1.12728 -s 2 -d 1 -p ack -e 40 -c 1 -i 9 -a 1 -x {2.0 0.0 2 ------- null}
h -t 1.12728 -s 2 -d 1 -p ack -e 40 -c 1 -i 9 -a 1 -x {2.0 0.0 -1 ------- null}
r -t 1.1292 -s 4 -d 2 -p tcp -e 1040 -c 1 -i 6 -a 1 -x {3.0 2.1 1 ------- null}
+ -t 1.1292 -s 2 -d 4 -p ack -e 40 -c 1 -i 10 -a 1 -x {2.1 3.0 1 ------- null}
- -t 1.1292 -s 2 -d 4 -p ack -e 40 -c 1 -i 10 -a 1 -x {2.1 3.0 1 ------- null}
h -t 1.1292 -s 2 -d 4 -p ack -e 40 -c 1 -i 10 -a 1 -x {2.1 3.0 -1 ------- null}
r -t 1.14728 -s 2 -d 1 -p ack -e 40 -c 1 -i 8 -a 1 -x {2.0 0.0 1 ------- null}
+ -t 1.14728 -s 1 -d 0 -p ack -e 40 -c 1 -i 8 -a 1 -x {2.0 0.0 1 ------- null}
- -t 1.14728 -s 1 -d 0 -p ack -e 40 -c 1 -i 8 -a 1 -x {2.0 0.0 1 ------- null}
h -t 1.14728 -s 1 -d 0 -p ack -e 40 -c 1 -i 8 -a 1 -x {2.0 0.0 -1 ------- null}
r -t 1.19744 -s 1 -d 0 -p ack -e 40 -c 1 -i 8 -a 1 -x {2.0 0.0 1 ------- null}
+ -t 1.19744 -s 0 -d 1 -p tcp -e 1040 -c 1 -i 11 -a 1 -x {0.0 2.0 3 ------- null}
- -t 1.19744 -s 0 -d 1 -p tcp -e 1040 -c 1 -i 11 -a 1 -x {0.0 2.0 3 ------- null}
h -t 1.19744 -s 0 -d 1 -p tcp -e 1040 -c 1 -i 11 -a 1 -x {0.0 2.0 -1 ------- null}
+ -t 1.19744 -s 0 -d 1 -p tcp -e 1040 -c 1 -i 12 -a 1 -x {0.0 2.0 4 ------- null}
- -t 1.2016 -s 0 -d 1 -p tcp -e 1040 -c 1 -i 12 -a 1 -x {0.0 2.0 4 ------- null}
h -t 1.2016 -s 0 -d 1 -p tcp -e 1040 -c 1 -i 12 -a 1 -x {0.0 2.0 -1 ------- null}
r -t 1.2124 -s 4 -d 2 -p tcp -e 1040 -c 1 -i 7 -a 1 -x {3.0 2.1 2 ------- null}
+ -t 1.2124 -s 2 -d 4 -p ack -e 40 -c 1 -i 13 -a 1 -x {2.1 3.0 2 ------- null}
- -t 1.2124 -s 2 -d 4 -p ack -e 40 -c 1 -i 13 -a 1 -x {2.1 3.0 2 ------- null}
h -t 1.2124 -s 2 -d 4 -p ack -e 40 -c 1 -i 13 -a 1 -x {2.1 3.0 -1 ------- null}
r -t 1.23048 -s 2 -d 1 -p ack -e 40 -c 1 -i 9 -a 1 -x {2.0 0.0 2 ------- null}
+ -t 1.23048 -s 1 -d 0 -p ack -e 40 -c 1 -i 9 -a 1 -x {2.0 0.0 2 ------- null}
- -t 1.23048 -s 1 -d 0 -p ack -e 40 -c 1 -i 9 -a 1 -x {2.0 0.0 2 ------- null}
h -t 1.23048 -s 1 -d 0 -p ack -e 40 -c 1 -i 9 -a 1 -x {2.0 0.0 -1 ------- null}
r -t 1.2324 -s 2 -d 4 -p ack -e 40 -c 1 -i 10 -a 1 -x {2.1 3.0 1 ------- null}
+ -t 1.2324 -s 4 -d 3 -p ack -e 40 -c 1 -i 10 -a 1 -x {2.1 3.0 1 ------- null}
- -t 1.2324 -s 4 -d 3 -p ack -e 40 -c 1 -i 10 -a 1 -x {2.1 3.0 1 ------- null}
h -t 1.2324 -s 4 -d 3 -p ack -e 40 -c 1 -i 10 -a 1 -x {2.1 3.0 -1 ------- null}
r -t 1.2516 -s 0 -d 1 -p tcp -e 1040 -c 1 -i 11 -a 1 -x {0.0 2.0 3 ------- null}
+ -t 1.2516 -s 1 -d 2 -p tcp -e 1040 -c 1 -i 11 -a 1 -x {0.0 2.0 3 ------- null}
- -t 1.2516 -s 1 -d 2 -p tcp -e 1040 -c 1 -i 11 -a 1 -x {0.0 2.0 3 ------- null}
h -t 1.2516 -s 1 -d 2 -p tcp -e 1040 -c 1 -i 11 -a 1 -x {0.0 2.0 -1 ------- null}
r -t 1.25576 -s 0 -d 1 -p tcp -e 1040 -c 1 -i 12 -a 1 -x {0.0 2.0 4 ------- null}
+ -t 1.25576 -s 1 -d 2 -p tcp -e 1040 -c 1 -i 12 -a 1 -x {0.0 2.0 4 ------- null}
r -t 1.28064 -s 1 -d 0 -p ack -e 40 -c 1 -i 9 -a 1 -x {2.0 0.0 2 ------- null}
+ -t 1.28064 -s 0 -d 1 -p tcp -e 1040 -c 1 -i 14 -a 1 -x {0.0 2.0 5 ------- null}
- -t 1.28064 -s 0 -d 1 -p tcp -e 1040 -c 1 -i 14 -a 1 -x {0.0 2.0 5 ------- null}
h -t 1.28064 -s 0 -d 1 -p tcp -e 1040 -c 1 -i 14 -a 1 -x {0.0 2.0 -1 ------- null}
+ -t 1.28064 -s 0 -d 1 -p tcp -e 1040 -c 1 -i 15 -a 1 -x {0.0 2.0 6 ------- null}
- -t 1.2848 -s 0 -d 1 -p tcp -e 1040 -c 1 -i 15 -a 1 -x {0.0 2.0 6 ------- null}
h -t 1.2848 -s 0 -d 1 -p tcp -e 1040 -c 1 -i 15 -a 1 -x {0.0 2.0 -1 ------- null}
r -t 1.2856 -s 4 -d 3 -p ack -e 40 -c 1 -i 10 -a 1 -x {2.1 3.0 1 ------- null}
+ -t 1.2856 -s 3 -d 4 -p tcp -e 1040 -c 1 -i 16 -a 1 -x {3.0 2.1 3 ------- null}
- -t 1.2856 -s 3 -d 4 -p tcp -e 1040 -c 1 -i 16 -a 1 -x {3.0 2.1 3 ------- null}
h -t 1.2856 -s 3 -d 4 -p tcp -e 1040 -c 1 -i 16 -a 1 -x {3.0 2.1 -1 ------- null}
+ -t 1.2856 -s 3 -d 4 -p tcp -e 1040 -c 1 -i 17 -a 1 -x {3.0 2.1 4 ------- null}
r -t 1.3156 -s 2 -d 4 -p ack -e 40 -c 1 -i 13 -a 1 -x {2.1 3.0 2 ------- null}
+ -t 1.3156 -s 4 -d 3 -p ack -e 40 -c 1 -i 13 -a 1 -x {2.1 3.0 2 ------- null}
- -t 1.3156 -s 4 -d 3 -p ack -e 40 -c 1 -i 13 -a 1 -x {2.1 3.0 2 ------- null}
h -t 1.3156 -s 4 -d 3 -p ack -e 40 -c 1 -i 13 -a 1 -x {2.1 3.0 -1 ------- null}
- -t 1.3348 -s 1 -d 2 -p tcp -e 1040 -c 1 -i 12 -a 1 -x {0.0 2.0 4 ------- null}
h -t 1.3348 -s 1 -d 2 -p tcp -e 1040 -c 1 -i 12 -a 1 -x {0.0 2.0 -1 ------- null}
r -t 1.3348 -s 0 -d 1 -p tcp -e 1040 -c 1 -i 14 -a 1 -x {0.0 2.0 5 ------- null}
+ -t 1.3348 -s 1 -d 2 -p tcp -e 1040 -c 1 -i 14 -a 1 -x {0.0 2.0 5 ------- null}
r -t 1.33896 -s 0 -d 1 -p tcp -e 1040 -c 1 -i 15 -a 1 -x {0.0 2.0 6 ------- null}
+ -t 1.33896 -s 1 -d 2 -p tcp -e 1040 -c 1 -i 15 -a 1 -x {0.0 2.0 6 ------- null}
- -t 1.3688 -s 3 -d 4 -p tcp -e 1040 -c 1 -i 17 -a 1 -x {3.0 2.1 4 ------- null}
h -t 1.3688 -s 3 -d 4 -p tcp -e 1040 -c 1 -i 17 -a 1 -x {3.0 2.1 -1 ------- null}
r -t 1.3688 -s 4 -d 3 -p ack -e 40 -c 1 -i 13 -a 1 -x {2.1 3.0 2 ------- null}
+ -t 1.3688 -s 3 -d 4 -p tcp -e 1040 -c 1 -i 18 -a 1 -x {3.0 2.1 5 ------- null}
+ -t 1.3688 -s 3 -d 4 -p tcp -e 1040 -c 1 -i 19 -a 1 -x {3.0 2.1 6 ------- null}
- -t 1.418 -s 1 -d 2 -p tcp -e 1040 -c 1 -i 14 -a 1 -x {0.0 2.0 5 ------- null}
h -t 1.418 -s 1 -d 2 -p tcp -e 1040 -c 1 -i 14 -a 1 -x {0.0 2.0 -1 ------- null}
r -t 1.4188 -s 3 -d 4 -p tcp -e 1040 -c 1 -i 16 -a 1 -x {3.0 2.1 3 ------- null}
+ -t 1.4188 -s 4 -d 2 -p tcp -e 1040 -c 1 -i 16 -a 1 -x {3.0 2.1 3 ------- null}
- -t 1.4188 -s 4 -d 2 -p tcp -e 1040 -c 1 -i 16 -a 1 -x {3.0 2.1 3 ------- null}
h -t 1.4188 -s 4 -d 2 -p tcp -e 1040 -c 1 -i 16 -a 1 -x {3.0 2.1 -1 ------- null}
r -t 1.4348 -s 1 -d 2 -p tcp -e 1040 -c 1 -i 11 -a 1 -x {0.0 2.0 3 ------- null}
+ -t 1.4348 -s 2 -d 1 -p ack -e 40 -c 1 -i 20 -a 1 -x {2.0 0.0 3 ------- null}
- -t 1.4348 -s 2 -d 1 -p ack -e 40 -c 1 -i 20 -a 1 -x {2.0 0.0 3 ------- null}
h -t 1.4348 -s 2 -d 1 -p ack -e 40 -c 1 -i 20 -a 1 -x {2.0 0.0 -1 ------- null}
- -t 1.452 -s 3 -d 4 -p tcp -e 1040 -c 1 -i 18 -a 1 -x {3.0 2.1 5 ------- null}
h -t 1.452 -s 3 -d 4 -p tcp -e 1040 -c 1 -i 18 -a 1 -x {3.0 2.1 -1 ------- null}
n -t 1.5 -s 2 -S COLOR -c red -o black -i red -I black
- -t 1.5012 -s 1 -d 2 -p tcp -e 1040 -c 1 -i 15 -a 1 -x {0.0 2.0 6 ------- null}
h -t 1.5012 -s 1 -d 2 -p tcp -e 1040 -c 1 -i 15 -a 1 -x {0.0 2.0 -1 ------- null}
r -t 1.502 -s 3 -d 4 -p tcp -e 1040 -c 1 -i 17 -a 1 -x {3.0 2.1 4 ------- null}
+ -t 1.502 -s 4 -d 2 -p tcp -e 1040 -c 1 -i 17 -a 1 -x {3.0 2.1 4 ------- null}
- -t 1.502 -s 4 -d 2 -p tcp -e 1040 -c 1 -i 17 -a 1 -x {3.0 2.1 4 ------- null}
h -t 1.502 -s 4 -d 2 -p tcp -e 1040 -c 1 -i 17 -a 1 -x {3.0 2.1 -1 ------- null}
r -t 1.518 -s 1 -d 2 -p tcp -e 1040 -c 1 -i 12 -a 1 -x {0.0 2.0 4 ------- null}
+ -t 1.518 -s 2 -d 1 -p ack -e 40 -c 1 -i 21 -a 1 -x {2.0 0.0 4 ------- null}
- -t 1.518 -s 2 -d 1 -p ack -e 40 -c 1 -i 21 -a 1 -x {2.0 0.0 4 ------- null}
h -t 1.518 -s 2 -d 1 -p ack -e 40 -c 1 -i 21 -a 1 -x {2.0 0.0 -1 ------- null}
- -t 1.5352 -s 3 -d 4 -p tcp -e 1040 -c 1 -i 19 -a 1 -x {3.0 2.1 6 ------- null}
h -t 1.5352 -s 3 -d 4 -p tcp -e 1040 -c 1 -i 19 -a 1 -x {3.0 2.1 -1 ------- null}
r -t 1.538 -s 2 -d 1 -p ack -e 40 -c 1 -i 20 -a 1 -x {2.0 0.0 3 ------- null}
+ -t 1.538 -s 1 -d 0 -p ack -e 40 -c 1 -i 20 -a 1 -x {2.0 0.0 3 ------- null}
- -t 1.538 -s 1 -d 0 -p ack -e 40 -c 1 -i 20 -a 1 -x {2.0 0.0 3 ------- null}
h -t 1.538 -s 1 -d 0 -p ack -e 40 -c 1 -i 20 -a 1 -x {2.0 0.0 -1 ------- null}
r -t 1.5852 -s 3 -d 4 -p tcp -e 1040 -c 1 -i 18 -a 1 -x {3.0 2.1 5 ------- null}
+ -t 1.5852 -s 4 -d 2 -p tcp -e 1040 -c 1 -i 18 -a 1 -x {3.0 2.1 5 ------- null}
- -t 1.5852 -s 4 -d 2 -p tcp -e 1040 -c 1 -i 18 -a 1 -x {3.0 2.1 5 ------- null}
h -t 1.5852 -s 4 -d 2 -p tcp -e 1040 -c 1 -i 18 -a 1 -x {3.0 2.1 -1 ------- null}
r -t 1.58816 -s 1 -d 0 -p ack -e 40 -c 1 -i 20 -a 1 -x {2.0 0.0 3 ------- null}
+ -t 1.58816 -s 0 -d 1 -p tcp -e 1040 -c 1 -i 22 -a 1 -x {0.0 2.0 7 ------- null}
- -t 1.58816 -s 0 -d 1 -p tcp -e 1040 -c 1 -i 22 -a 1 -x {0.0 2.0 7 ------- null}
h -t 1.58816 -s 0 -d 1 -p tcp -e 1040 -c 1 -i 22 -a 1 -x {0.0 2.0 -1 ------- null}
+ -t 1.58816 -s 0 -d 1 -p tcp -e 1040 -c 1 -i 23 -a 1 -x {0.0 2.0 8 ------- null}
- -t 1.59232 -s 0 -d 1 -p tcp -e 1040 -c 1 -i 23 -a 1 -x {0.0 2.0 8 ------- null}
h -t 1.59232 -s 0 -d 1 -p tcp -e 1040 -c 1 -i 23 -a 1 -x {0.0 2.0 -1 ------- null}
d -t 1.6 -s 2 -d 1 -p ack -e 40 -c 1 -i 21 -a 1 -x {2.0 0.0 4 ------- null}
l -t 1.6000000000000001 -s 2 -d 1 -S DOWN
v -t 1.6000000000000001 link-down 1.6000000000000001 2 1
d -t 1.6 -s 1 -d 2 -p tcp -e 1040 -c 1 -i 14 -a 1 -x {0.0 2.0 5 ------- null}
d -t 1.6 -s 1 -d 2 -p tcp -e 1040 -c 1 -i 15 -a 1 -x {0.0 2.0 6 ------- null}
l -t 1.6000000000000001 -s 1 -d 2 -S DOWN
v -t 1.6000000000000001 link-down 1.6000000000000001 1 2
r -t 1.602 -s 4 -d 2 -p tcp -e 1040 -c 1 -i 16 -a 1 -x {3.0 2.1 3 ------- null}
+ -t 1.602 -s 2 -d 4 -p ack -e 40 -c 1 -i 24 -a 1 -x {2.1 3.0 3 ------- null}
- -t 1.602 -s 2 -d 4 -p ack -e 40 -c 1 -i 24 -a 1 -x {2.1 3.0 3 ------- null}
h -t 1.602 -s 2 -d 4 -p ack -e 40 -c 1 -i 24 -a 1 -x {2.1 3.0 -1 ------- null}
r -t 1.64232 -s 0 -d 1 -p tcp -e 1040 -c 1 -i 22 -a 1 -x {0.0 2.0 7 ------- null}
r -t 1.64648 -s 0 -d 1 -p tcp -e 1040 -c 1 -i 23 -a 1 -x {0.0 2.0 8 ------- null}
r -t 1.6684 -s 3 -d 4 -p tcp -e 1040 -c 1 -i 19 -a 1 -x {3.0 2.1 6 ------- null}
+ -t 1.6684 -s 4 -d 2 -p tcp -e 1040 -c 1 -i 19 -a 1 -x {3.0 2.1 6 ------- null}
- -t 1.6684 -s 4 -d 2 -p tcp -e 1040 -c 1 -i 19 -a 1 -x {3.0 2.1 6 ------- null}
h -t 1.6684 -s 4 -d 2 -p tcp -e 1040 -c 1 -i 19 -a 1 -x {3.0 2.1 -1 ------- null}
r -t 1.6852 -s 4 -d 2 -p tcp -e 1040 -c 1 -i 17 -a 1 -x {3.0 2.1 4 ------- null}
+ -t 1.6852 -s 2 -d 4 -p ack -e 40 -c 1 -i 25 -a 1 -x {2.1 3.0 4 ------- null}
- -t 1.6852 -s 2 -d 4 -p ack -e 40 -c 1 -i 25 -a 1 -x {2.1 3.0 4 ------- null}
h -t 1.6852 -s 2 -d 4 -p ack -e 40 -c 1 -i 25 -a 1 -x {2.1 3.0 -1 ------- null}
r -t 1.7052 -s 2 -d 4 -p ack -e 40 -c 1 -i 24 -a 1 -x {2.1 3.0 3 ------- null}
+ -t 1.7052 -s 4 -d 3 -p ack -e 40 -c 1 -i 24 -a 1 -x {2.1 3.0 3 ------- null}
- -t 1.7052 -s 4 -d 3 -p ack -e 40 -c 1 -i 24 -a 1 -x {2.1 3.0 3 ------- null}
h -t 1.7052 -s 4 -d 3 -p ack -e 40 -c 1 -i 24 -a 1 -x {2.1 3.0 -1 ------- null}
r -t 1.7584 -s 4 -d 3 -p ack -e 40 -c 1 -i 24 -a 1 -x {2.1 3.0 3 ------- null}
+ -t 1.7584 -s 3 -d 4 -p tcp -e 1040 -c 1 -i 26 -a 1 -x {3.0 2.1 7 ------- null}
- -t 1.7584 -s 3 -d 4 -p tcp -e 1040 -c 1 -i 26 -a 1 -x {3.0 2.1 7 ------- null}
h -t 1.7584 -s 3 -d 4 -p tcp -e 1040 -c 1 -i 26 -a 1 -x {3.0 2.1 -1 ------- null}
+ -t 1.7584 -s 3 -d 4 -p tcp -e 1040 -c 1 -i 27 -a 1 -x {3.0 2.1 8 ------- null}
r -t 1.7684 -s 4 -d 2 -p tcp -e 1040 -c 1 -i 18 -a 1 -x {3.0 2.1 5 ------- null}
+ -t 1.7684 -s 2 -d 4 -p ack -e 40 -c 1 -i 28 -a 1 -x {2.1 3.0 5 ------- null}
- -t 1.7684 -s 2 -d 4 -p ack -e 40 -c 1 -i 28 -a 1 -x {2.1 3.0 5 ------- null}
h -t 1.7684 -s 2 -d 4 -p ack -e 40 -c 1 -i 28 -a 1 -x {2.1 3.0 -1 ------- null}
r -t 1.7884 -s 2 -d 4 -p ack -e 40 -c 1 -i 25 -a 1 -x {2.1 3.0 4 ------- null}
+ -t 1.7884 -s 4 -d 3 -p ack -e 40 -c 1 -i 25 -a 1 -x {2.1 3.0 4 ------- null}
- -t 1.7884 -s 4 -d 3 -p ack -e 40 -c 1 -i 25 -a 1 -x {2.1 3.0 4 ------- null}
h -t 1.7884 -s 4 -d 3 -p ack -e 40 -c 1 -i 25 -a 1 -x {2.1 3.0 -1 ------- null}
- -t 1.8416 -s 3 -d 4 -p tcp -e 1040 -c 1 -i 27 -a 1 -x {3.0 2.1 8 ------- null}
h -t 1.8416 -s 3 -d 4 -p tcp -e 1040 -c 1 -i 27 -a 1 -x {3.0 2.1 -1 ------- null}
r -t 1.8416 -s 4 -d 3 -p ack -e 40 -c 1 -i 25 -a 1 -x {2.1 3.0 4 ------- null}
+ -t 1.8416 -s 3 -d 4 -p tcp -e 1040 -c 1 -i 29 -a 1 -x {3.0 2.1 9 ------- null}
+ -t 1.8416 -s 3 -d 4 -p tcp -e 1040 -c 1 -i 30 -a 1 -x {3.0 2.1 10 ------- null}
r -t 1.8516 -s 4 -d 2 -p tcp -e 1040 -c 1 -i 19 -a 1 -x {3.0 2.1 6 ------- null}
+ -t 1.8516 -s 2 -d 4 -p ack -e 40 -c 1 -i 31 -a 1 -x {2.1 3.0 6 ------- null}
- -t 1.8516 -s 2 -d 4 -p ack -e 40 -c 1 -i 31 -a 1 -x {2.1 3.0 6 ------- null}
h -t 1.8516 -s 2 -d 4 -p ack -e 40 -c 1 -i 31 -a 1 -x {2.1 3.0 -1 ------- null}
r -t 1.8716 -s 2 -d 4 -p ack -e 40 -c 1 -i 28 -a 1 -x {2.1 3.0 5 ------- null}
+ -t 1.8716 -s 4 -d 3 -p ack -e 40 -c 1 -i 28 -a 1 -x {2.1 3.0 5 ------- null}
- -t 1.8716 -s 4 -d 3 -p ack -e 40 -c 1 -i 28 -a 1 -x {2.1 3.0 5 ------- null}
h -t 1.8716 -s 4 -d 3 -p ack -e 40 -c 1 -i 28 -a 1 -x {2.1 3.0 -1 ------- null}
r -t 1.8916 -s 3 -d 4 -p tcp -e 1040 -c 1 -i 26 -a 1 -x {3.0 2.1 7 ------- null}
+ -t 1.8916 -s 4 -d 2 -p tcp -e 1040 -c 1 -i 26 -a 1 -x {3.0 2.1 7 ------- null}
- -t 1.8916 -s 4 -d 2 -p tcp -e 1040 -c 1 -i 26 -a 1 -x {3.0 2.1 7 ------- null}
h -t 1.8916 -s 4 -d 2 -p tcp -e 1040 -c 1 -i 26 -a 1 -x {3.0 2.1 -1 ------- null}
- -t 1.9248 -s 3 -d 4 -p tcp -e 1040 -c 1 -i 29 -a 1 -x {3.0 2.1 9 ------- null}
h -t 1.9248 -s 3 -d 4 -p tcp -e 1040 -c 1 -i 29 -a 1 -x {3.0 2.1 -1 ------- null}
r -t 1.9248 -s 4 -d 3 -p ack -e 40 -c 1 -i 28 -a 1 -x {2.1 3.0 5 ------- null}
+ -t 1.9248 -s 3 -d 4 -p tcp -e 1040 -c 1 -i 32 -a 1 -x {3.0 2.1 11 ------- null}
+ -t 1.9248 -s 3 -d 4 -p tcp -e 1040 -c 1 -i 33 -a 1 -x {3.0 2.1 12 ------- null}
r -t 1.9548 -s 2 -d 4 -p ack -e 40 -c 1 -i 31 -a 1 -x {2.1 3.0 6 ------- null}
+ -t 1.9548 -s 4 -d 3 -p ack -e 40 -c 1 -i 31 -a 1 -x {2.1 3.0 6 ------- null}
- -t 1.9548 -s 4 -d 3 -p ack -e 40 -c 1 -i 31 -a 1 -x {2.1 3.0 6 ------- null}
h -t 1.9548 -s 4 -d 3 -p ack -e 40 -c 1 -i 31 -a 1 -x {2.1 3.0 -1 ------- null}
r -t 1.9748 -s 3 -d 4 -p tcp -e 1040 -c 1 -i 27 -a 1 -x {3.0 2.1 8 ------- null}
+ -t 1.9748 -s 4 -d 2 -p tcp -e 1040 -c 1 -i 27 -a 1 -x {3.0 2.1 8 ------- null}
- -t 1.9748 -s 4 -d 2 -p tcp -e 1040 -c 1 -i 27 -a 1 -x {3.0 2.1 8 ------- null}
h -t 1.9748 -s 4 -d 2 -p tcp -e 1040 -c 1 -i 27 -a 1 -x {3.0 2.1 -1 ------- null}
- -t 2.008 -s 3 -d 4 -p tcp -e 1040 -c 1 -i 30 -a 1 -x {3.0 2.1 10 ------- null}
h -t 2.008 -s 3 -d 4 -p tcp -e 1040 -c 1 -i 30 -a 1 -x {3.0 2.1 -1 ------- null}
r -t 2.008 -s 4 -d 3 -p ack -e 40 -c 1 -i 31 -a 1 -x {2.1 3.0 6 ------- null}
+ -t 2.008 -s 3 -d 4 -p tcp -e 1040 -c 1 -i 34 -a 1 -x {3.0 2.1 13 ------- null}
+ -t 2.008 -s 3 -d 4 -p tcp -e 1040 -c 1 -i 35 -a 1 -x {3.0 2.1 14 ------- null}
r -t 2.058 -s 3 -d 4 -p tcp -e 1040 -c 1 -i 29 -a 1 -x {3.0 2.1 9 ------- null}
+ -t 2.058 -s 4 -d 2 -p tcp -e 1040 -c 1 -i 29 -a 1 -x {3.0 2.1 9 ------- null}
- -t 2.058 -s 4 -d 2 -p tcp -e 1040 -c 1 -i 29 -a 1 -x {3.0 2.1 9 ------- null}
h -t 2.058 -s 4 -d 2 -p tcp -e 1040 -c 1 -i 29 -a 1 -x {3.0 2.1 -1 ------- null}
r -t 2.0748 -s 4 -d 2 -p tcp -e 1040 -c 1 -i 26 -a 1 -x {3.0 2.1 7 ------- null}
+ -t 2.0748 -s 2 -d 4 -p ack -e 40 -c 1 -i 36 -a 1 -x {2.1 3.0 7 ------- null}
- -t 2.0748 -s 2 -d 4 -p ack -e 40 -c 1 -i 36 -a 1 -x {2.1 3.0 7 ------- null}
h -t 2.0748 -s 2 -d 4 -p ack -e 40 -c 1 -i 36 -a 1 -x {2.1 3.0 -1 ------- null}
- -t 2.0912 -s 3 -d 4 -p tcp -e 1040 -c 1 -i 32 -a 1 -x {3.0 2.1 11 ------- null}
h -t 2.0912 -s 3 -d 4 -p tcp -e 1040 -c 1 -i 32 -a 1 -x {3.0 2.1 -1 ------- null}
r -t 2.1412 -s 3 -d 4 -p tcp -e 1040 -c 1 -i 30 -a 1 -x {3.0 2.1 10 ------- null}
+ -t 2.1412 -s 4 -d 2 -p tcp -e 1040 -c 1 -i 30 -a 1 -x {3.0 2.1 10 ------- null}
- -t 2.1412 -s 4 -d 2 -p tcp -e 1040 -c 1 -i 30 -a 1 -x {3.0 2.1 10 ------- null}
h -t 2.1412 -s 4 -d 2 -p tcp -e 1040 -c 1 -i 30 -a 1 -x {3.0 2.1 -1 ------- null}
r -t 2.158 -s 4 -d 2 -p tcp -e 1040 -c 1 -i 27 -a 1 -x {3.0 2.1 8 ------- null}
+ -t 2.158 -s 2 -d 4 -p ack -e 40 -c 1 -i 37 -a 1 -x {2.1 3.0 8 ------- null}
- -t 2.158 -s 2 -d 4 -p ack -e 40 -c 1 -i 37 -a 1 -x {2.1 3.0 8 ------- null}
h -t 2.158 -s 2 -d 4 -p ack -e 40 -c 1 -i 37 -a 1 -x {2.1 3.0 -1 ------- null}
- -t 2.1744 -s 3 -d 4 -p tcp -e 1040 -c 1 -i 33 -a 1 -x {3.0 2.1 12 ------- null}
h -t 2.1744 -s 3 -d 4 -p tcp -e 1040 -c 1 -i 33 -a 1 -x {3.0 2.1 -1 ------- null}
r -t 2.178 -s 2 -d 4 -p ack -e 40 -c 1 -i 36 -a 1 -x {2.1 3.0 7 ------- null}
+ -t 2.178 -s 4 -d 3 -p ack -e 40 -c 1 -i 36 -a 1 -x {2.1 3.0 7 ------- null}
- -t 2.178 -s 4 -d 3 -p ack -e 40 -c 1 -i 36 -a 1 -x {2.1 3.0 7 ------- null}
h -t 2.178 -s 4 -d 3 -p ack -e 40 -c 1 -i 36 -a 1 -x {2.1 3.0 -1 ------- null}
r -t 2.2244 -s 3 -d 4 -p tcp -e 1040 -c 1 -i 32 -a 1 -x {3.0 2.1 11 ------- null}
+ -t 2.2244 -s 4 -d 2 -p tcp -e 1040 -c 1 -i 32 -a 1 -x {3.0 2.1 11 ------- null}
- -t 2.2244 -s 4 -d 2 -p tcp -e 1040 -c 1 -i 32 -a 1 -x {3.0 2.1 11 ------- null}
h -t 2.2244 -s 4 -d 2 -p tcp -e 1040 -c 1 -i 32 -a 1 -x {3.0 2.1 -1 ------- null}
r -t 2.2312 -s 4 -d 3 -p ack -e 40 -c 1 -i 36 -a 1 -x {2.1 3.0 7 ------- null}
+ -t 2.2312 -s 3 -d 4 -p tcp -e 1040 -c 1 -i 38 -a 1 -x {3.0 2.1 15 ------- null}
+ -t 2.2312 -s 3 -d 4 -p tcp -e 1040 -c 1 -i 39 -a 1 -x {3.0 2.1 16 ------- null}
r -t 2.2412 -s 4 -d 2 -p tcp -e 1040 -c 1 -i 29 -a 1 -x {3.0 2.1 9 ------- null}
+ -t 2.2412 -s 2 -d 4 -p ack -e 40 -c 1 -i 40 -a 1 -x {2.1 3.0 9 ------- null}
- -t 2.2412 -s 2 -d 4 -p ack -e 40 -c 1 -i 40 -a 1 -x {2.1 3.0 9 ------- null}
h -t 2.2412 -s 2 -d 4 -p ack -e 40 -c 1 -i 40 -a 1 -x {2.1 3.0 -1 ------- null}
- -t 2.2576 -s 3 -d 4 -p tcp -e 1040 -c 1 -i 34 -a 1 -x {3.0 2.1 13 ------- null}
h -t 2.2576 -s 3 -d 4 -p tcp -e 1040 -c 1 -i 34 -a 1 -x {3.0 2.1 -1 ------- null}
r -t 2.2612 -s 2 -d 4 -p ack -e 40 -c 1 -i 37 -a 1 -x {2.1 3.0 8 ------- null}
+ -t 2.2612 -s 4 -d 3 -p ack -e 40 -c 1 -i 37 -a 1 -x {2.1 3.0 8 ------- null}
- -t 2.2612 -s 4 -d 3 -p ack -e 40 -c 1 -i 37 -a 1 -x {2.1 3.0 8 ------- null}
h -t 2.2612 -s 4 -d 3 -p ack -e 40 -c 1 -i 37 -a 1 -x {2.1 3.0 -1 ------- null}
r -t 2.3076 -s 3 -d 4 -p tcp -e 1040 -c 1 -i 33 -a 1 -x {3.0 2.1 12 ------- null}
+ -t 2.3076 -s 4 -d 2 -p tcp -e 1040 -c 1 -i 33 -a 1 -x {3.0 2.1 12 ------- null}
- -t 2.3076 -s 4 -d 2 -p tcp -e 1040 -c 1 -i 33 -a 1 -x {3.0 2.1 12 ------- null}
h -t 2.3076 -s 4 -d 2 -p tcp -e 1040 -c 1 -i 33 -a 1 -x {3.0 2.1 -1 ------- null}
r -t 2.3144 -s 4 -d 3 -p ack -e 40 -c 1 -i 37 -a 1 -x {2.1 3.0 8 ------- null}
+ -t 2.3144 -s 3 -d 4 -p tcp -e 1040 -c 1 -i 41 -a 1 -x {3.0 2.1 17 ------- null}
+ -t 2.3144 -s 3 -d 4 -p tcp -e 1040 -c 1 -i 42 -a 1 -x {3.0 2.1 18 ------- null}
r -t 2.3244 -s 4 -d 2 -p tcp -e 1040 -c 1 -i 30 -a 1 -x {3.0 2.1 10 ------- null}
+ -t 2.3244 -s 2 -d 4 -p ack -e 40 -c 1 -i 43 -a 1 -x {2.1 3.0 10 ------- null}
- -t 2.3244 -s 2 -d 4 -p ack -e 40 -c 1 -i 43 -a 1 -x {2.1 3.0 10 ------- null}
h -t 2.3244 -s 2 -d 4 -p ack -e 40 -c 1 -i 43 -a 1 -x {2.1 3.0 -1 ------- null}
- -t 2.3408 -s 3 -d 4 -p tcp -e 1040 -c 1 -i 35 -a 1 -x {3.0 2.1 14 ------- null}
h -t 2.3408 -s 3 -d 4 -p tcp -e 1040 -c 1 -i 35 -a 1 -x {3.0 2.1 -1 ------- null}
r -t 2.3444 -s 2 -d 4 -p ack -e 40 -c 1 -i 40 -a 1 -x {2.1 3.0 9 ------- null}
+ -t 2.3444 -s 4 -d 3 -p ack -e 40 -c 1 -i 40 -a 1 -x {2.1 3.0 9 ------- null}
- -t 2.3444 -s 4 -d 3 -p ack -e 40 -c 1 -i 40 -a 1 -x {2.1 3.0 9 ------- null}
h -t 2.3444 -s 4 -d 3 -p ack -e 40 -c 1 -i 40 -a 1 -x {2.1 3.0 -1 ------- null}
r -t 2.3908 -s 3 -d 4 -p tcp -e 1040 -c 1 -i 34 -a 1 -x {3.0 2.1 13 ------- null}
+ -t 2.3908 -s 4 -d 2 -p tcp -e 1040 -c 1 -i 34 -a 1 -x {3.0 2.1 13 ------- null}
- -t 2.3908 -s 4 -d 2 -p tcp -e 1040 -c 1 -i 34 -a 1 -x {3.0 2.1 13 ------- null}
h -t 2.3908 -s 4 -d 2 -p tcp -e 1040 -c 1 -i 34 -a 1 -x {3.0 2.1 -1 ------- null}
r -t 2.3976 -s 4 -d 3 -p ack -e 40 -c 1 -i 40 -a 1 -x {2.1 3.0 9 ------- null}
+ -t 2.3976 -s 3 -d 4 -p tcp -e 1040 -c 1 -i 44 -a 1 -x {3.0 2.1 19 ------- null}
+ -t 2.3976 -s 3 -d 4 -p tcp -e 1040 -c 1 -i 45 -a 1 -x {3.0 2.1 20 ------- null}
+ -t 2.39816 -s 0 -d 1 -p tcp -e 1040 -c 1 -i 46 -a 1 -x {0.0 2.0 4 ---A--- null}
- -t 2.39816 -s 0 -d 1 -p tcp -e 1040 -c 1 -i 46 -a 1 -x {0.0 2.0 4 ---A--- null}
h -t 2.39816 -s 0 -d 1 -p tcp -e 1040 -c 1 -i 46 -a 1 -x {0.0 2.0 -1 ---A--- null}
r -t 2.4076 -s 4 -d 2 -p tcp -e 1040 -c 1 -i 32 -a 1 -x {3.0 2.1 11 ------- null}
+ -t 2.4076 -s 2 -d 4 -p ack -e 40 -c 1 -i 47 -a 1 -x {2.1 3.0 11 ------- null}
- -t 2.4076 -s 2 -d 4 -p ack -e 40 -c 1 -i 47 -a 1 -x {2.1 3.0 11 ------- null}
h -t 2.4076 -s 2 -d 4 -p ack -e 40 -c 1 -i 47 -a 1 -x {2.1 3.0 -1 ------- null}
- -t 2.424 -s 3 -d 4 -p tcp -e 1040 -c 1 -i 38 -a 1 -x {3.0 2.1 15 ------- null}
h -t 2.424 -s 3 -d 4 -p tcp -e 1040 -c 1 -i 38 -a 1 -x {3.0 2.1 -1 ------- null}
r -t 2.4276 -s 2 -d 4 -p ack -e 40 -c 1 -i 43 -a 1 -x {2.1 3.0 10 ------- null}
+ -t 2.4276 -s 4 -d 3 -p ack -e 40 -c 1 -i 43 -a 1 -x {2.1 3.0 10 ------- null}
- -t 2.4276 -s 4 -d 3 -p ack -e 40 -c 1 -i 43 -a 1 -x {2.1 3.0 10 ------- null}
h -t 2.4276 -s 4 -d 3 -p ack -e 40 -c 1 -i 43 -a 1 -x {2.1 3.0 -1 ------- null}
r -t 2.45232 -s 0 -d 1 -p tcp -e 1040 -c 1 -i 46 -a 1 -x {0.0 2.0 4 ---A--- null}
r -t 2.474 -s 3 -d 4 -p tcp -e 1040 -c 1 -i 35 -a 1 -x {3.0 2.1 14 ------- null}
+ -t 2.474 -s 4 -d 2 -p tcp -e 1040 -c 1 -i 35 -a 1 -x {3.0 2.1 14 ------- null}
- -t 2.474 -s 4 -d 2 -p tcp -e 1040 -c 1 -i 35 -a 1 -x {3.0 2.1 14 ------- null}
h -t 2.474 -s 4 -d 2 -p tcp -e 1040 -c 1 -i 35 -a 1 -x {3.0 2.1 -1 ------- null}
r -t 2.4808 -s 4 -d 3 -p ack -e 40 -c 1 -i 43 -a 1 -x {2.1 3.0 10 ------- null}
+ -t 2.4808 -s 3 -d 4 -p tcp -e 1040 -c 1 -i 48 -a 1 -x {3.0 2.1 21 ------- null}
+ -t 2.4808 -s 3 -d 4 -p tcp -e 1040 -c 1 -i 49 -a 1 -x {3.0 2.1 22 ------- null}
r -t 2.4908 -s 4 -d 2 -p tcp -e 1040 -c 1 -i 33 -a 1 -x {3.0 2.1 12 ------- null}
+ -t 2.4908 -s 2 -d 4 -p ack -e 40 -c 1 -i 50 -a 1 -x {2.1 3.0 12 ------- null}
- -t 2.4908 -s 2 -d 4 -p ack -e 40 -c 1 -i 50 -a 1 -x {2.1 3.0 12 ------- null}
h -t 2.4908 -s 2 -d 4 -p ack -e 40 -c 1 -i 50 -a 1 -x {2.1 3.0 -1 ------- null}
- -t 2.5072 -s 3 -d 4 -p tcp -e 1040 -c 1 -i 39 -a 1 -x {3.0 2.1 16 ------- null}
h -t 2.5072 -s 3 -d 4 -p tcp -e 1040 -c 1 -i 39 -a 1 -x {3.0 2.1 -1 ------- null}
r -t 2.5108 -s 2 -d 4 -p ack -e 40 -c 1 -i 47 -a 1 -x {2.1 3.0 11 ------- null}
+ -t 2.5108 -s 4 -d 3 -p ack -e 40 -c 1 -i 47 -a 1 -x {2.1 3.0 11 ------- null}
- -t 2.5108 -s 4 -d 3 -p ack -e 40 -c 1 -i 47 -a 1 -x {2.1 3.0 11 ------- null}
h -t 2.5108 -s 4 -d 3 -p ack -e 40 -c 1 -i 47 -a 1 -x {2.1 3.0 -1 ------- null}
r -t 2.5572 -s 3 -d 4 -p tcp -e 1040 -c 1 -i 38 -a 1 -x {3.0 2.1 15 ------- null}
+ -t 2.5572 -s 4 -d 2 -p tcp -e 1040 -c 1 -i 38 -a 1 -x {3.0 2.1 15 ------- null}
- -t 2.5572 -s 4 -d 2 -p tcp -e 1040 -c 1 -i 38 -a 1 -x {3.0 2.1 15 ------- null}
h -t 2.5572 -s 4 -d 2 -p tcp -e 1040 -c 1 -i 38 -a 1 -x {3.0 2.1 -1 ------- null}
r -t 2.564 -s 4 -d 3 -p ack -e 40 -c 1 -i 47 -a 1 -x {2.1 3.0 11 ------- null}
+ -t 2.564 -s 3 -d 4 -p tcp -e 1040 -c 1 -i 51 -a 1 -x {3.0 2.1 23 ------- null}
+ -t 2.564 -s 3 -d 4 -p tcp -e 1040 -c 1 -i 52 -a 1 -x {3.0 2.1 24 ------- null}
r -t 2.574 -s 4 -d 2 -p tcp -e 1040 -c 1 -i 34 -a 1 -x {3.0 2.1 13 ------- null}
+ -t 2.574 -s 2 -d 4 -p ack -e 40 -c 1 -i 53 -a 1 -x {2.1 3.0 13 ------- null}
- -t 2.574 -s 2 -d 4 -p ack -e 40 -c 1 -i 53 -a 1 -x {2.1 3.0 13 ------- null}
h -t 2.574 -s 2 -d 4 -p ack -e 40 -c 1 -i 53 -a 1 -x {2.1 3.0 -1 ------- null}
- -t 2.5904 -s 3 -d 4 -p tcp -e 1040 -c 1 -i 41 -a 1 -x {3.0 2.1 17 ------- null}
h -t 2.5904 -s 3 -d 4 -p tcp -e 1040 -c 1 -i 41 -a 1 -x {3.0 2.1 -1 ------- null}
r -t 2.594 -s 2 -d 4 -p ack -e 40 -c 1 -i 50 -a 1 -x {2.1 3.0 12 ------- null}
+ -t 2.594 -s 4 -d 3 -p ack -e 40 -c 1 -i 50 -a 1 -x {2.1 3.0 12 ------- null}
- -t 2.594 -s 4 -d 3 -p ack -e 40 -c 1 -i 50 -a 1 -x {2.1 3.0 12 ------- null}
h -t 2.594 -s 4 -d 3 -p ack -e 40 -c 1 -i 50 -a 1 -x {2.1 3.0 -1 ------- null}
r -t 2.6404 -s 3 -d 4 -p tcp -e 1040 -c 1 -i 39 -a 1 -x {3.0 2.1 16 ------- null}
+ -t 2.6404 -s 4 -d 2 -p tcp -e 1040 -c 1 -i 39 -a 1 -x {3.0 2.1 16 ------- null}
- -t 2.6404 -s 4 -d 2 -p tcp -e 1040 -c 1 -i 39 -a 1 -x {3.0 2.1 16 ------- null}
h -t 2.6404 -s 4 -d 2 -p tcp -e 1040 -c 1 -i 39 -a 1 -x {3.0 2.1 -1 ------- null}
r -t 2.6472 -s 4 -d 3 -p ack -e 40 -c 1 -i 50 -a 1 -x {2.1 3.0 12 ------- null}
+ -t 2.6472 -s 3 -d 4 -p tcp -e 1040 -c 1 -i 54 -a 1 -x {3.0 2.1 25 ------- null}
+ -t 2.6472 -s 3 -d 4 -p tcp -e 1040 -c 1 -i 55 -a 1 -x {3.0 2.1 26 ------- null}