+ 0.5 0 2 tcp 40 ------- 1 0.0 4.0 0 0
- 0.5 0 2 tcp 40 ------- 1 0.0 4.0 0 0
+ 0.5 1 2 tcp 40 ------- 2 1.0 4.1 0 1
- 0.5 1 2 tcp 40 ------- 2 1.0 4.1 0 1
r 0.550064 0 2 tcp 40 ------- 1 0.0 4.0 0 0
+ 0.550064 2 3 tcp 40 ------- 1 0.0 4.0 0 0
- 0.550064 2 3 tcp 40 ------- 1 0.0 4.0 0 0
r 0.550064 1 2 tcp 40 ------- 2 1.0 4.1 0 1
+ 0.550064 2 3 tcp 40 ------- 2 1.0 4.1 0 1
- 0.552197 2 3 tcp 40 ------- 2 1.0 4.1 0 1
r 0.602197 2 3 tcp 40 ------- 1 0.0 4.0 0 0
+ 0.602197 3 4 tcp 40 ------- 1 0.0 4.0 0 0
- 0.602197 3 4 tcp 40 ------- 1 0.0 4.0 0 0
r 0.604331 2 3 tcp 40 ------- 2 1.0 4.1 0 1
+ 0.604331 3 4 tcp 40 ------- 2 1.0 4.1 0 1
- 0.604331 3 4 tcp 40 ------- 2 1.0 4.1 0 1
r 0.653264 3 4 tcp 40 ------- 1 0.0 4.0 0 0
+ 0.653264 4 3 ack 40 ------- 1 4.0 0.0 0 2
- 0.653264 4 3 ack 40 ------- 1 4.0 0.0 0 2
r 0.655397 3 4 tcp 40 ------- 2 1.0 4.1 0 1
+ 0.655397 4 3 ack 40 ------- 2 4.1 1.0 0 3
- 0.655397 4 3 ack 40 ------- 2 4.1 1.0 0 3
r 0.704331 4 3 ack 40 ------- 1 4.0 0.0 0 2
+ 0.704331 3 2 ack 40 ------- 1 4.0 0.0 0 2
- 0.704331 3 2 ack 40 ------- 1 4.0 0.0 0 2
r 0.706464 4 3 ack 40 ------- 2 4.1 1.0 0 3
+ 0.706464 3 2 ack 40 ------- 2 4.1 1.0 0 3
- 0.706464 3 2 ack 40 ------- 2 4.1 1.0 0 3
r 0.756464 3 2 ack 40 ------- 1 4.0 0.0 0 2
+ 0.756464 2 0 ack 40 ------- 1 4.0 0.0 0 2
- 0.756464 2 0 ack 40 ------- 1 4.0 0.0 0 2
r 0.758597 3 2 ack 40 ------- 2 4.1 1.0 0 3
+ 0.758597 2 1 ack 40 ------- 2 4.1 1.0 0 3
- 0.758597 2 1 ack 40 ------- 2 4.1 1.0 0 3
r 0.806528 2 0 ack 40 ------- 1 4.0 0.0 0 2
+ 0.806528 0 2 tcp 1040 ------- 1 0.0 4.0 1 4
- 0.806528 0 2 tcp 1040 ------- 1 0.0 4.0 1 4
+ 0.806528 0 2 tcp 1040 ------- 1 0.0 4.0 2 5
- 0.808192 0 2 tcp 1040 ------- 1 0.0 4.0 2 5
r 0.808661 2 1 ack 40 ------- 2 4.1 1.0 0 3
+ 0.808661 1 2 tcp 1040 ------- 2 1.0 4.1 1 6
- 0.808661 1 2 tcp 1040 ------- 2 1.0 4.1 1 6
+ 0.808661 1 2 tcp 1040 ------- 2 1.0 4.1 2 7
- 0.810325 1 2 tcp 1040 ------- 2 1.0 4.1 2 7
r 0.858192 0 2 tcp 1040 ------- 1 0.0 4.0 1 4
+ 0.858192 2 3 tcp 1040 ------- 1 0.0 4.0 1 4
- 0.858192 2 3 tcp 1040 ------- 1 0.0 4.0 1 4
r 0.859856 0 2 tcp 1040 ------- 1 0.0 4.0 2 5
+ 0.859856 2 3 tcp 1040 ------- 1 0.0 4.0 2 5
r 0.860325 1 2 tcp 1040 ------- 2 1.0 4.1 1 6
+ 0.860325 2 3 tcp 1040 ------- 2 1.0 4.1 1 6
r 0.861989 1 2 tcp 1040 ------- 2 1.0 4.1 2 7
+ 0.861989 2 3 tcp 1040 ------- 2 1.0 4.1 2 7
- 0.913659 2 3 tcp 1040 ------- 1 0.0 4.0 2 5
r 0.963659 2 3 tcp 1040 ------- 1 0.0 4.0 1 4
+ 0.963659 3 4 tcp 1040 ------- 1 0.0 4.0 1 4
- 0.963659 3 4 tcp 1040 ------- 1 0.0 4.0 1 4
- 0.969125 2 3 tcp 1040 ------- 2 1.0 4.1 1 6
r 1.019125 2 3 tcp 1040 ------- 1 0.0 4.0 2 5
+ 1.019125 3 4 tcp 1040 ------- 1 0.0 4.0 2 5
- 1.019125 3 4 tcp 1040 ------- 1 0.0 4.0 2 5
- 1.024592 2 3 tcp 1040 ------- 2 1.0 4.1 2 7
r 1.041392 3 4 tcp 1040 ------- 1 0.0 4.0 1 4
+ 1.041392 4 3 ack 40 ------- 1 4.0 0.0 1 8
- 1.041392 4 3 ack 40 ------- 1 4.0 0.0 1 8
r 1.074592 2 3 tcp 1040 ------- 2 1.0 4.1 1 6
+ 1.074592 3 4 tcp 1040 ------- 2 1.0 4.1 1 6
- 1.074592 3 4 tcp 1040 ------- 2 1.0 4.1 1 6
r 1.092459 4 3 ack 40 ------- 1 4.0 0.0 1 8
+ 1.092459 3 2 ack 40 ------- 1 4.0 0.0 1 8
- 1.092459 3 2 ack 40 ------- 1 4.0 0.0 1 8
r 1.096859 3 4 tcp 1040 ------- 1 0.0 4.0 2 5
+ 1.096859 4 3 ack 40 ------- 1 4.0 0.0 2 9
- 1.096859 4 3 ack 40 ------- 1 4.0 0.0 2 9
r 1.130059 2 3 tcp 1040 ------- 2 1.0 4.1 2 7
+ 1.130059 3 4 tcp 1040 ------- 2 1.0 4.1 2 7
- 1.130059 3 4 tcp 1040 ------- 2 1.0 4.1 2 7
r 1.144592 3 2 ack 40 ------- 1 4.0 0.0 1 8
+ 1.144592 2 0 ack 40 ------- 1 4.0 0.0 1 8
- 1.144592 2 0 ack 40 ------- 1 4.0 0.0 1 8
r 1.147925 4 3 ack 40 ------- 1 4.0 0.0 2 9
+ 1.147925 3 2 ack 40 ------- 1 4.0 0.0 2 9
- 1.147925 3 2 ack 40 ------- 1 4.0 0.0 2 9
r 1.152325 3 4 tcp 1040 ------- 2 1.0 4.1 1 6
+ 1.152325 4 3 ack 40 ------- 2 4.1 1.0 1 10
- 1.152325 4 3 ack 40 ------- 2 4.1 1.0 1 10
r 1.194656 2 0 ack 40 ------- 1 4.0 0.0 1 8
+ 1.194656 0 2 tcp 1040 ------- 1 0.0 4.0 3 11
- 1.194656 0 2 tcp 1040 ------- 1 0.0 4.0 3 11
+ 1.194656 0 2 tcp 1040 ------- 1 0.0 4.0 4 12
- 1.19632 0 2 tcp 1040 ------- 1 0.0 4.0 4 12
r 1.200059 3 2 ack 40 ------- 1 4.0 0.0 2 9
+ 1.200059 2 0 ack 40 ------- 1 4.0 0.0 2 9
- 1.200059 2 0 ack 40 ------- 1 4.0 0.0 2 9
r 1.203392 4 3 ack 40 ------- 2 4.1 1.0 1 10
+ 1.203392 3 2 ack 40 ------- 2 4.1 1.0 1 10
- 1.203392 3 2 ack 40 ------- 2 4.1 1.0 1 10
r 1.207792 3 4 tcp 1040 ------- 2 1.0 4.1 2 7
+ 1.207792 4 3 ack 40 ------- 2 4.1 1.0 2 13
- 1.207792 4 3 ack 40 ------- 2 4.1 1.0 2 13
r 1.24632 0 2 tcp 1040 ------- 1 0.0 4.0 3 11
+ 1.24632 2 3 tcp 1040 ------- 1 0.0 4.0 3 11
- 1.24632 2 3 tcp 1040 ------- 1 0.0 4.0 3 11
r 1.247984 0 2 tcp 1040 ------- 1 0.0 4.0 4 12
+ 1.247984 2 3 tcp 1040 ------- 1 0.0 4.0 4 12
r 1.250123 2 0 ack 40 ------- 1 4.0 0.0 2 9
+ 1.250123 0 2 tcp 1040 ------- 1 0.0 4.0 5 14
- 1.250123 0 2 tcp 1040 ------- 1 0.0 4.0 5 14
+ 1.250123 0 2 tcp 1040 ------- 1 0.0 4.0 6 15
- 1.251787 0 2 tcp 1040 ------- 1 0.0 4.0 6 15
r 1.255525 3 2 ack 40 ------- 2 4.1 1.0 1 10
+ 1.255525 2 1 ack 40 ------- 2 4.1 1.0 1 10
- 1.255525 2 1 ack 40 ------- 2 4.1 1.0 1 10
r 1.258859 4 3 ack 40 ------- 2 4.1 1.0 2 13
+ 1.258859 3 2 ack 40 ------- 2 4.1 1.0 2 13
- 1.258859 3 2 ack 40 ------- 2 4.1 1.0 2 13
r 1.301787 0 2 tcp 1040 ------- 1 0.0 4.0 5 14
+ 1.301787 2 3 tcp 1040 ------- 1 0.0 4.0 5 14
- 1.301787 2 3 tcp 1040 ------- 1 0.0 4.0 4 12
r 1.303451 0 2 tcp 1040 ------- 1 0.0 4.0 6 15
+ 1.303451 2 3 tcp 1040 ------- 1 0.0 4.0 6 15
r 1.305589 2 1 ack 40 ------- 2 4.1 1.0 1 10
+ 1.305589 1 2 tcp 1040 ------- 2 1.0 4.1 3 16
- 1.305589 1 2 tcp 1040 ------- 2 1.0 4.1 3 16
+ 1.305589 1 2 tcp 1040 ------- 2 1.0 4.1 4 17
- 1.307253 1 2 tcp 1040 ------- 2 1.0 4.1 4 17
r 1.310992 3 2 ack 40 ------- 2 4.1 1.0 2 13
+ 1.310992 2 1 ack 40 ------- 2 4.1 1.0 2 13
- 1.310992 2 1 ack 40 ------- 2 4.1 1.0 2 13
r 1.351787 2 3 tcp 1040 ------- 1 0.0 4.0 3 11
+ 1.351787 3 4 tcp 1040 ------- 1 0.0 4.0 3 11
- 1.351787 3 4 tcp 1040 ------- 1 0.0 4.0 3 11
r 1.357253 1 2 tcp 1040 ------- 2 1.0 4.1 3 16
+ 1.357253 2 3 tcp 1040 ------- 2 1.0 4.1 3 16
- 1.357253 2 3 tcp 1040 ------- 1 0.0 4.0 5 14
r 1.358917 1 2 tcp 1040 ------- 2 1.0 4.1 4 17
+ 1.358917 2 3 tcp 1040 ------- 2 1.0 4.1 4 17
r 1.361056 2 1 ack 40 ------- 2 4.1 1.0 2 13
+ 1.361056 1 2 tcp 1040 ------- 2 1.0 4.1 5 18
- 1.361056 1 2 tcp 1040 ------- 2 1.0 4.1 5 18
+ 1.361056 1 2 tcp 1040 ------- 2 1.0 4.1 6 19
- 1.36272 1 2 tcp 1040 ------- 2 1.0 4.1 6 19
r 1.407253 2 3 tcp 1040 ------- 1 0.0 4.0 4 12
+ 1.407253 3 4 tcp 1040 ------- 1 0.0 4.0 4 12
- 1.407253 3 4 tcp 1040 ------- 1 0.0 4.0 4 12
r 1.41272 1 2 tcp 1040 ------- 2 1.0 4.1 5 18
+ 1.41272 2 3 tcp 1040 ------- 2 1.0 4.1 5 18
- 1.41272 2 3 tcp 1040 ------- 1 0.0 4.0 6 15
r 1.414384 1 2 tcp 1040 ------- 2 1.0 4.1 6 19
+ 1.414384 2 3 tcp 1040 ------- 2 1.0 4.1 6 19
r 1.42952 3 4 tcp 1040 ------- 1 0.0 4.0 3 11
+ 1.42952 4 3 ack 40 ------- 1 4.0 0.0 3 20
- 1.42952 4 3 ack 40 ------- 1 4.0 0.0 3 20
r 1.46272 2 3 tcp 1040 ------- 1 0.0 4.0 5 14
+ 1.46272 3 4 tcp 1040 ------- 1 0.0 4.0 5 14
- 1.46272 3 4 tcp 1040 ------- 1 0.0 4.0 5 14
- 1.468187 2 3 tcp 1040 ------- 2 1.0 4.1 3 16
r 1.480587 4 3 ack 40 ------- 1 4.0 0.0 3 20
+ 1.480587 3 2 ack 40 ------- 1 4.0 0.0 3 20
- 1.480587 3 2 ack 40 ------- 1 4.0 0.0 3 20
r 1.484987 3 4 tcp 1040 ------- 1 0.0 4.0 4 12
+ 1.484987 4 3 ack 40 ------- 1 4.0 0.0 4 21
- 1.484987 4 3 ack 40 ------- 1 4.0 0.0 4 21
r 1.518187 2 3 tcp 1040 ------- 1 0.0 4.0 6 15
+ 1.518187 3 4 tcp 1040 ------- 1 0.0 4.0 6 15
- 1.518187 3 4 tcp 1040 ------- 1 0.0 4.0 6 15
- 1.523653 2 3 tcp 1040 ------- 2 1.0 4.1 4 17
r 1.53272 3 2 ack 40 ------- 1 4.0 0.0 3 20
+ 1.53272 2 0 ack 40 ------- 1 4.0 0.0 3 20
- 1.53272 2 0 ack 40 ------- 1 4.0 0.0 3 20
r 1.536053 4 3 ack 40 ------- 1 4.0 0.0 4 21
+ 1.536053 3 2 ack 40 ------- 1 4.0 0.0 4 21
- 1.536053 3 2 ack 40 ------- 1 4.0 0.0 4 21
r 1.540453 3 4 tcp 1040 ------- 1 0.0 4.0 5 14
+ 1.540453 4 3 ack 40 ------- 1 4.0 0.0 5 22
- 1.540453 4 3 ack 40 ------- 1 4.0 0.0 5 22
r 1.573653 2 3 tcp 1040 ------- 2 1.0 4.1 3 16
+ 1.573653 3 4 tcp 1040 ------- 2 1.0 4.1 3 16
- 1.573653 3 4 tcp 1040 ------- 2 1.0 4.1 3 16
- 1.57912 2 3 tcp 1040 ------- 2 1.0 4.1 5 18
r 1.582784 2 0 ack 40 ------- 1 4.0 0.0 3 20
+ 1.582784 0 2 tcp 1040 ------- 1 0.0 4.0 7 23
- 1.582784 0 2 tcp 1040 ------- 1 0.0 4.0 7 23
+ 1.582784 0 2 tcp 1040 ------- 1 0.0 4.0 8 24
- 1.584448 0 2 tcp 1040 ------- 1 0.0 4.0 8 24
r 1.588187 3 2 ack 40 ------- 1 4.0 0.0 4 21
+ 1.588187 2 0 ack 40 ------- 1 4.0 0.0 4 21
- 1.588187 2 0 ack 40 ------- 1 4.0 0.0 4 21
r 1.59152 4 3 ack 40 ------- 1 4.0 0.0 5 22
+ 1.59152 3 2 ack 40 ------- 1 4.0 0.0 5 22
- 1.59152 3 2 ack 40 ------- 1 4.0 0.0 5 22
r 1.59592 3 4 tcp 1040 ------- 1 0.0 4.0 6 15
+ 1.59592 4 3 ack 40 ------- 1 4.0 0.0 6 25
- 1.59592 4 3 ack 40 ------- 1 4.0 0.0 6 25
r 1.62912 2 3 tcp 1040 ------- 2 1.0 4.1 4 17
+ 1.62912 3 4 tcp 1040 ------- 2 1.0 4.1 4 17
- 1.62912 3 4 tcp 1040 ------- 2 1.0 4.1 4 17
r 1.634448 0 2 tcp 1040 ------- 1 0.0 4.0 7 23
+ 1.634448 2 3 tcp 1040 ------- 1 0.0 4.0 7 23
- 1.634587 2 3 tcp 1040 ------- 2 1.0 4.1 6 19
r 1.636112 0 2 tcp 1040 ------- 1 0.0 4.0 8 24
+ 1.636112 2 3 tcp 1040 ------- 1 0.0 4.0 8 24
r 1.638251 2 0 ack 40 ------- 1 4.0 0.0 4 21
+ 1.638251 0 2 tcp 1040 ------- 1 0.0 4.0 9 26
- 1.638251 0 2 tcp 1040 ------- 1 0.0 4.0 9 26
+ 1.638251 0 2 tcp 1040 ------- 1 0.0 4.0 10 27
- 1.639915 0 2 tcp 1040 ------- 1 0.0 4.0 10 27
r 1.643653 3 2 ack 40 ------- 1 4.0 0.0 5 22
+ 1.643653 2 0 ack 40 ------- 1 4.0 0.0 5 22
- 1.643653 2 0 ack 40 ------- 1 4.0 0.0 5 22
r 1.646987 4 3 ack 40 ------- 1 4.0 0.0 6 25
+ 1.646987 3 2 ack 40 ------- 1 4.0 0.0 6 25
- 1.646987 3 2 ack 40 ------- 1 4.0 0.0 6 25
r 1.651387 3 4 tcp 1040 ------- 2 1.0 4.1 3 16
+ 1.651387 4 3 ack 40 ------- 2 4.1 1.0 3 28
- 1.651387 4 3 ack 40 ------- 2 4.1 1.0 3 28
r 1.684587 2 3 tcp 1040 ------- 2 1.0 4.1 5 18
+ 1.684587 3 4 tcp 1040 ------- 2 1.0 4.1 5 18
- 1.684587 3 4 tcp 1040 ------- 2 1.0 4.1 5 18
r 1.689915 0 2 tcp 1040 ------- 1 0.0 4.0 9 26
+ 1.689915 2 3 tcp 1040 ------- 1 0.0 4.0 9 26
- 1.690053 2 3 tcp 1040 ------- 1 0.0 4.0 7 23
r 1.691579 0 2 tcp 1040 ------- 1 0.0 4.0 10 27
+ 1.691579 2 3 tcp 1040 ------- 1 0.0 4.0 10 27
r 1.693717 2 0 ack 40 ------- 1 4.0 0.0 5 22
+ 1.693717 0 2 tcp 1040 ------- 1 0.0 4.0 11 29
- 1.693717 0 2 tcp 1040 ------- 1 0.0 4.0 11 29
+ 1.693717 0 2 tcp 1040 ------- 1 0.0 4.0 12 30
- 1.695381 0 2 tcp 1040 ------- 1 0.0 4.0 12 30
r 1.69912 3 2 ack 40 ------- 1 4.0 0.0 6 25
+ 1.69912 2 0 ack 40 ------- 1 4.0 0.0 6 25
- 1.69912 2 0 ack 40 ------- 1 4.0 0.0 6 25
r 1.702453 4 3 ack 40 ------- 2 4.1 1.0 3 28
+ 1.702453 3 2 ack 40 ------- 2 4.1 1.0 3 28
- 1.702453 3 2 ack 40 ------- 2 4.1 1.0 3 28
r 1.706853 3 4 tcp 1040 ------- 2 1.0 4.1 4 17
+ 1.706853 4 3 ack 40 ------- 2 4.1 1.0 4 31
- 1.706853 4 3 ack 40 ------- 2 4.1 1.0 4 31
r 1.740053 2 3 tcp 1040 ------- 2 1.0 4.1 6 19
+ 1.740053 3 4 tcp 1040 ------- 2 1.0 4.1 6 19
- 1.740053 3 4 tcp 1040 ------- 2 1.0 4.1 6 19
r 1.745381 0 2 tcp 1040 ------- 1 0.0 4.0 11 29
+ 1.745381 2 3 tcp 1040 ------- 1 0.0 4.0 11 29
- 1.74552 2 3 tcp 1040 ------- 1 0.0 4.0 8 24
r 1.747045 0 2 tcp 1040 ------- 1 0.0 4.0 12 30
+ 1.747045 2 3 tcp 1040 ------- 1 0.0 4.0 12 30
r 1.749184 2 0 ack 40 ------- 1 4.0 0.0 6 25
+ 1.749184 0 2 tcp 1040 ------- 1 0.0 4.0 13 32
- 1.749184 0 2 tcp 1040 ------- 1 0.0 4.0 13 32
+ 1.749184 0 2 tcp 1040 ------- 1 0.0 4.0 14 33
- 1.750848 0 2 tcp 1040 ------- 1 0.0 4.0 14 33
r 1.754587 3 2 ack 40 ------- 2 4.1 1.0 3 28
+ 1.754587 2 1 ack 40 ------- 2 4.1 1.0 3 28
- 1.754587 2 1 ack 40 ------- 2 4.1 1.0 3 28
r 1.75792 4 3 ack 40 ------- 2 4.1 1.0 4 31
+ 1.75792 3 2 ack 40 ------- 2 4.1 1.0 4 31
- 1.75792 3 2 ack 40 ------- 2 4.1 1.0 4 31
r 1.76232 3 4 tcp 1040 ------- 2 1.0 4.1 5 18
+ 1.76232 4 3 ack 40 ------- 2 4.1 1.0 5 34
- 1.76232 4 3 ack 40 ------- 2 4.1 1.0 5 34
r 1.79552 2 3 tcp 1040 ------- 1 0.0 4.0 7 23
+ 1.79552 3 4 tcp 1040 ------- 1 0.0 4.0 7 23
- 1.79552 3 4 tcp 1040 ------- 1 0.0 4.0 7 23
r 1.800848 0 2 tcp 1040 ------- 1 0.0 4.0 13 32
+ 1.800848 2 3 tcp 1040 ------- 1 0.0 4.0 13 32
- 1.800987 2 3 tcp 1040 ------- 1 0.0 4.0 9 26
r 1.802512 0 2 tcp 1040 ------- 1 0.0 4.0 14 33
+ 1.802512 2 3 tcp 1040 ------- 1 0.0 4.0 14 33
r 1.804651 2 1 ack 40 ------- 2 4.1 1.0 3 28
+ 1.804651 1 2 tcp 1040 ------- 2 1.0 4.1 7 35
- 1.804651 1 2 tcp 1040 ------- 2 1.0 4.1 7 35
+ 1.804651 1 2 tcp 1040 ------- 2 1.0 4.1 8 36
- 1.806315 1 2 tcp 1040 ------- 2 1.0 4.1 8 36
r 1.810053 3 2 ack 40 ------- 2 4.1 1.0 4 31
+ 1.810053 2 1 ack 40 ------- 2 4.1 1.0 4 31
- 1.810053 2 1 ack 40 ------- 2 4.1 1.0 4 31
r 1.813387 4 3 ack 40 ------- 2 4.1 1.0 5 34
+ 1.813387 3 2 ack 40 ------- 2 4.1 1.0 5 34
- 1.813387 3 2 ack 40 ------- 2 4.1 1.0 5 34
r 1.817787 3 4 tcp 1040 ------- 2 1.0 4.1 6 19
+ 1.817787 4 3 ack 40 ------- 2 4.1 1.0 6 37
- 1.817787 4 3 ack 40 ------- 2 4.1 1.0 6 37
r 1.850987 2 3 tcp 1040 ------- 1 0.0 4.0 8 24
+ 1.850987 3 4 tcp 1040 ------- 1 0.0 4.0 8 24
- 1.850987 3 4 tcp 1040 ------- 1 0.0 4.0 8 24
r 1.856315 1 2 tcp 1040 ------- 2 1.0 4.1 7 35
+ 1.856315 2 3 tcp 1040 ------- 2 1.0 4.1 7 35
- 1.856453 2 3 tcp 1040 ------- 1 0.0 4.0 10 27
r 1.857979 1 2 tcp 1040 ------- 2 1.0 4.1 8 36
+ 1.857979 2 3 tcp 1040 ------- 2 1.0 4.1 8 36
r 1.860117 2 1 ack 40 ------- 2 4.1 1.0 4 31
+ 1.860117 1 2 tcp 1040 ------- 2 1.0 4.1 9 38
- 1.860117 1 2 tcp 1040 ------- 2 1.0 4.1 9 38
+ 1.860117 1 2 tcp 1040 ------- 2 1.0 4.1 10 39
- 1.861781 1 2 tcp 1040 ------- 2 1.0 4.1 10 39
r 1.86552 3 2 ack 40 ------- 2 4.1 1.0 5 34
+ 1.86552 2 1 ack 40 ------- 2 4.1 1.0 5 34
- 1.86552 2 1 ack 40 ------- 2 4.1 1.0 5 34
r 1.868853 4 3 ack 40 ------- 2 4.1 1.0 6 37
+ 1.868853 3 2 ack 40 ------- 2 4.1 1.0 6 37
- 1.868853 3 2 ack 40 ------- 2 4.1 1.0 6 37
r 1.873253 3 4 tcp 1040 ------- 1 0.0 4.0 7 23
+ 1.873253 4 3 ack 40 ------- 1 4.0 0.0 7 40
- 1.873253 4 3 ack 40 ------- 1 4.0 0.0 7 40
r 1.906453 2 3 tcp 1040 ------- 1 0.0 4.0 9 26
+ 1.906453 3 4 tcp 1040 ------- 1 0.0 4.0 9 26
- 1.906453 3 4 tcp 1040 ------- 1 0.0 4.0 9 26
r 1.911781 1 2 tcp 1040 ------- 2 1.0 4.1 9 38
+ 1.911781 2 3 tcp 1040 ------- 2 1.0 4.1 9 38
- 1.91192 2 3 tcp 1040 ------- 1 0.0 4.0 11 29
r 1.913445 1 2 tcp 1040 ------- 2 1.0 4.1 10 39
+ 1.913445 2 3 tcp 1040 ------- 2 1.0 4.1 10 39
r 1.915584 2 1 ack 40 ------- 2 4.1 1.0 5 34
+ 1.915584 1 2 tcp 1040 ------- 2 1.0 4.1 11 41
- 1.915584 1 2 tcp 1040 ------- 2 1.0 4.1 11 41
+ 1.915584 1 2 tcp 1040 ------- 2 1.0 4.1 12 42
- 1.917248 1 2 tcp 1040 ------- 2 1.0 4.1 12 42
r 1.920987 3 2 ack 40 ------- 2 4.1 1.0 6 37
+ 1.920987 2 1 ack 40 ------- 2 4.1 1.0 6 37
- 1.920987 2 1 ack 40 ------- 2 4.1 1.0 6 37
r 1.92432 4 3 ack 40 ------- 1 4.0 0.0 7 40
+ 1.92432 3 2 ack 40 ------- 1 4.0 0.0 7 40
- 1.92432 3 2 ack 40 ------- 1 4.0 0.0 7 40
r 1.92872 3 4 tcp 1040 ------- 1 0.0 4.0 8 24
+ 1.92872 4 3 ack 40 ------- 1 4.0 0.0 8 43
- 1.92872 4 3 ack 40 ------- 1 4.0 0.0 8 43
r 1.96192 2 3 tcp 1040 ------- 1 0.0 4.0 10 27
+ 1.96192 3 4 tcp 1040 ------- 1 0.0 4.0 10 27
- 1.96192 3 4 tcp 1040 ------- 1 0.0 4.0 10 27
r 1.967248 1 2 tcp 1040 ------- 2 1.0 4.1 11 41
+ 1.967248 2 3 tcp 1040 ------- 2 1.0 4.1 11 41
- 1.967387 2 3 tcp 1040 ------- 1 0.0 4.0 12 30
r 1.968912 1 2 tcp 1040 ------- 2 1.0 4.1 12 42
+ 1.968912 2 3 tcp 1040 ------- 2 1.0 4.1 12 42
r 1.971051 2 1 ack 40 ------- 2 4.1 1.0 6 37
+ 1.971051 1 2 tcp 1040 ------- 2 1.0 4.1 13 44
- 1.971051 1 2 tcp 1040 ------- 2 1.0 4.1 13 44
+ 1.971051 1 2 tcp 1040 ------- 2 1.0 4.1 14 45
- 1.972715 1 2 tcp 1040 ------- 2 1.0 4.1 14 45
r 1.976453 3 2 ack 40 ------- 1 4.0 0.0 7 40
+ 1.976453 2 0 ack 40 ------- 1 4.0 0.0 7 40
- 1.976453 2 0 ack 40 ------- 1 4.0 0.0 7 40
r 1.979787 4 3 ack 40 ------- 1 4.0 0.0 8 43
+ 1.979787 3 2 ack 40 ------- 1 4.0 0.0 8 43
- 1.979787 3 2 ack 40 ------- 1 4.0 0.0 8 43
r 1.984187 3 4 tcp 1040 ------- 1 0.0 4.0 9 26
+ 1.984187 4 3 ack 40 ------- 1 4.0 0.0 9 46
- 1.984187 4 3 ack 40 ------- 1 4.0 0.0 9 46
r 2.017387 2 3 tcp 1040 ------- 1 0.0 4.0 11 29
+ 2.017387 3 4 tcp 1040 ------- 1 0.0 4.0 11 29
- 2.017387 3 4 tcp 1040 ------- 1 0.0 4.0 11 29
r 2.022715 1 2 tcp 1040 ------- 2 1.0 4.1 13 44
+ 2.022715 2 3 tcp 1040 ------- 2 1.0 4.1 13 44
- 2.022853 2 3 tcp 1040 ------- 1 0.0 4.0 13 32
r 2.024379 1 2 tcp 1040 ------- 2 1.0 4.1 14 45
+ 2.024379 2 3 tcp 1040 ------- 2 1.0 4.1 14 45
r 2.026517 2 0 ack 40 ------- 1 4.0 0.0 7 40
+ 2.026517 0 2 tcp 1040 ------- 1 0.0 4.0 15 47
- 2.026517 0 2 tcp 1040 ------- 1 0.0 4.0 15 47
+ 2.026517 0 2 tcp 1040 ------- 1 0.0 4.0 16 48
- 2.028181 0 2 tcp 1040 ------- 1 0.0 4.0 16 48
r 2.03192 3 2 ack 40 ------- 1 4.0 0.0 8 43
+ 2.03192 2 0 ack 40 ------- 1 4.0 0.0 8 43
- 2.03192 2 0 ack 40 ------- 1 4.0 0.0 8 43
r 2.035253 4 3 ack 40 ------- 1 4.0 0.0 9 46
+ 2.035253 3 2 ack 40 ------- 1 4.0 0.0 9 46
- 2.035253 3 2 ack 40 ------- 1 4.0 0.0 9 46
r 2.039653 3 4 tcp 1040 ------- 1 0.0 4.0 10 27
+ 2.039653 4 3 ack 40 ------- 1 4.0 0.0 10 49
- 2.039653 4 3 ack 40 ------- 1 4.0 0.0 10 49
r 2.072853 2 3 tcp 1040 ------- 1 0.0 4.0 12 30
+ 2.072853 3 4 tcp 1040 ------- 1 0.0 4.0 12 30
- 2.072853 3 4 tcp 1040 ------- 1 0.0 4.0 12 30
r 2.078181 0 2 tcp 1040 ------- 1 0.0 4.0 15 47
+ 2.078181 2 3 tcp 1040 ------- 1 0.0 4.0 15 47
- 2.07832 2 3 tcp 1040 ------- 1 0.0 4.0 14 33
r 2.079845 0 2 tcp 1040 ------- 1 0.0 4.0 16 48
+ 2.079845 2 3 tcp 1040 ------- 1 0.0 4.0 16 48
r 2.081984 2 0 ack 40 ------- 1 4.0 0.0 8 43
+ 2.081984 0 2 tcp 1040 ------- 1 0.0 4.0 17 50
- 2.081984 0 2 tcp 1040 ------- 1 0.0 4.0 17 50
+ 2.081984 0 2 tcp 1040 ------- 1 0.0 4.0 18 51
- 2.083648 0 2 tcp 1040 ------- 1 0.0 4.0 18 51
r 2.087387 3 2 ack 40 ------- 1 4.0 0.0 9 46
+ 2.087387 2 0 ack 40 ------- 1 4.0 0.0 9 46
- 2.087387 2 0 ack 40 ------- 1 4.0 0.0 9 46
r 2.09072 4 3 ack 40 ------- 1 4.0 0.0 10 49
+ 2.09072 3 2 ack 40 ------- 1 4.0 0.0 10 49
- 2.09072 3 2 ack 40 ------- 1 4.0 0.0 10 49
r 2.09512 3 4 tcp 1040 ------- 1 0.0 4.0 11 29
+ 2.09512 4 3 ack 40 ------- 1 4.0 0.0 11 52
- 2.09512 4 3 ack 40 ------- 1 4.0 0.0 11 52
r 2.12832 2 3 tcp 1040 ------- 1 0.0 4.0 13 32
+ 2.12832 3 4 tcp 1040 ------- 1 0.0 4.0 13 32
- 2.12832 3 4 tcp 1040 ------- 1 0.0 4.0 13 32
r 2.133648 0 2 tcp 1040 ------- 1 0.0 4.0 17 50
+ 2.133648 2 3 tcp 1040 ------- 1 0.0 4.0 17 50
- 2.133787 2 3 tcp 1040 ------- 2 1.0 4.1 7 35
r 2.135312 0 2 tcp 1040 ------- 1 0.0 4.0 18 51
+ 2.135312 2 3 tcp 1040 ------- 1 0.0 4.0 18 51
r 2.137451 2 0 ack 40 ------- 1 4.0 0.0 9 46
+ 2.137451 0 2 tcp 1040 ------- 1 0.0 4.0 19 53
- 2.137451 0 2 tcp 1040 ------- 1 0.0 4.0 19 53
+ 2.137451 0 2 tcp 1040 ------- 1 0.0 4.0 20 54
- 2.139115 0 2 tcp 1040 ------- 1 0.0 4.0 20 54
r 2.142853 3 2 ack 40 ------- 1 4.0 0.0 10 49
+ 2.142853 2 0 ack 40 ------- 1 4.0 0.0 10 49
- 2.142853 2 0 ack 40 ------- 1 4.0 0.0 10 49
r 2.146187 4 3 ack 40 ------- 1 4.0 0.0 11 52
+ 2.146187 3 2 ack 40 ------- 1 4.0 0.0 11 52
- 2.146187 3 2 ack 40 ------- 1 4.0 0.0 11 52
r 2.150587 3 4 tcp 1040 ------- 1 0.0 4.0 12 30
+ 2.150587 4 3 ack 40 ------- 1 4.0 0.0 12 55
- 2.150587 4 3 ack 40 ------- 1 4.0 0.0 12 55
r 2.183787 2 3 tcp 1040 ------- 1 0.0 4.0 14 33
+ 2.183787 3 4 tcp 1040 ------- 1 0.0 4.0 14 33
- 2.183787 3 4 tcp 1040 ------- 1 0.0 4.0 14 33
r 2.189115 0 2 tcp 1040 ------- 1 0.0 4.0 19 53
+ 2.189115 2 3 tcp 1040 ------- 1 0.0 4.0 19 53
- 2.189253 2 3 tcp 1040 ------- 2 1.0 4.1 8 36
r 2.190779 0 2 tcp 1040 ------- 1 0.0 4.0 20 54
+ 2.190779 2 3 tcp 1040 ------- 1 0.0 4.0 20 54
r 2.192917 2 0 ack 40 ------- 1 4.0 0.0 10 49
+ 2.192917 0 2 tcp 1040 ------- 1 0.0 4.0 21 56
- 2.192917 0 2 tcp 1040 ------- 1 0.0 4.0 21 56
+ 2.192917 0 2 tcp 1040 ------- 1 0.0 4.0 22 57
- 2.194581 0 2 tcp 1040 ------- 1 0.0 4.0 22 57
r 2.19832 3 2 ack 40 ------- 1 4.0 0.0 11 52
+ 2.19832 2 0 ack 40 ------- 1 4.0 0.0 11 52
- 2.19832 2 0 ack 40 ------- 1 4.0 0.0 11 52
r 2.201653 4 3 ack 40 ------- 1 4.0 0.0 12 55
+ 2.201653 3 2 ack 40 ------- 1 4.0 0.0 12 55
- 2.201653 3 2 ack 40 ------- 1 4.0 0.0 12 55
r 2.206053 3 4 tcp 1040 ------- 1 0.0 4.0 13 32
+ 2.206053 4 3 ack 40 ------- 1 4.0 0.0 13 58
- 2.206053 4 3 ack 40 ------- 1 4.0 0.0 13 58
r 2.239253 2 3 tcp 1040 ------- 2 1.0 4.1 7 35
+ 2.239253 3 4 tcp 1040 ------- 2 1.0 4.1 7 35
- 2.239253 3 4 tcp 1040 ------- 2 1.0 4.1 7 35
r 2.244581 0 2 tcp 1040 ------- 1 0.0 4.0 21 56
+ 2.244581 2 3 tcp 1040 ------- 1 0.0 4.0 21 56
- 2.24472 2 3 tcp 1040 ------- 2 1.0 4.1 9 38
r 2.246245 0 2 tcp 1040 ------- 1 0.0 4.0 22 57
+ 2.246245 2 3 tcp 1040 ------- 1 0.0 4.0 22 57
r 2.248384 2 0 ack 40 ------- 1 4.0 0.0 11 52
+ 2.248384 0 2 tcp 1040 ------- 1 0.0 4.0 23 59
- 2.248384 0 2 tcp 1040 ------- 1 0.0 4.0 23 59
+ 2.248384 0 2 tcp 1040 ------- 1 0.0 4.0 24 60
- 2.250048 0 2 tcp 1040 ------- 1 0.0 4.0 24 60
r 2.253787 3 2 ack 40 ------- 1 4.0 0.0 12 55
+ 2.253787 2 0 ack 40 ------- 1 4.0 0.0 12 55
- 2.253787 2 0 ack 40 ------- 1 4.0 0.0 12 55
r 2.25712 4 3 ack 40 ------- 1 4.0 0.0 13 58
+ 2.25712 3 2 ack 40 ------- 1 4.0 0.0 13 58
- 2.25712 3 2 ack 40 ------- 1 4.0 0.0 13 58
r 2.26152 3 4 tcp 1040 ------- 1 0.0 4.0 14 33
+ 2.26152 4 3 ack 40 ------- 1 4.0 0.0 14 61
- 2.26152 4 3 ack 40 ------- 1 4.0 0.0 14 61
r 2.29472 2 3 tcp 1040 ------- 2 1.0 4.1 8 36
+ 2.29472 3 4 tcp 1040 ------- 2 1.0 4.1 8 36
- 2.29472 3 4 tcp 1040 ------- 2 1.0 4.1 8 36
r 2.300048 0 2 tcp 1040 ------- 1 0.0 4.0 23 59
+ 2.300048 2 3 tcp 1040 ------- 1 0.0 4.0 23 59
- 2.300187 2 3 tcp 1040 ------- 2 1.0 4.1 10 39
r 2.301712 0 2 tcp 1040 ------- 1 0.0 4.0 24 60
+ 2.301712 2 3 tcp 1040 ------- 1 0.0 4.0 24 60
r 2.303851 2 0 ack 40 ------- 1 4.0 0.0 12 55
+ 2.303851 0 2 tcp 1040 ------- 1 0.0 4.0 25 62
- 2.303851 0 2 tcp 1040 ------- 1 0.0 4.0 25 62
+ 2.303851 0 2 tcp 1040 ------- 1 0.0 4.0 26 63
- 2.305515 0 2 tcp 1040 ------- 1 0.0 4.0 26 63
r 2.309253 3 2 ack 40 ------- 1 4.0 0.0 13 58
+ 2.309253 2 0 ack 40 ------- 1 4.0 0.0 13 58
- 2.309253 2 0 ack 40 ------- 1 4.0 0.0 13 58
r 2.312587 4 3 ack 40 ------- 1 4.0 0.0 14 61
+ 2.312587 3 2 ack 40 ------- 1 4.0 0.0 14 61
- 2.312587 3 2 ack 40 ------- 1 4.0 0.0 14 61
r 2.316987 3 4 tcp 1040 ------- 2 1.0 4.1 7 35
+ 2.316987 4 3 ack 40 ------- 2 4.1 1.0 7 64
- 2.316987 4 3 ack 40 ------- 2 4.1 1.0 7 64
r 2.350187 2 3 tcp 1040 ------- 2 1.0 4.1 9 38
+ 2.350187 3 4 tcp 1040 ------- 2 1.0 4.1 9 38
- 2.350187 3 4 tcp 1040 ------- 2 1.0 4.1 9 38
r 2.355515 0 2 tcp 1040 ------- 1 0.0 4.0 25 62
+ 2.355515 2 3 tcp 1040 ------- 1 0.0 4.0 25 62
- 2.355653 2 3 tcp 1040 ------- 2 1.0 4.1 11 41
r 2.357179 0 2 tcp 1040 ------- 1 0.0 4.0 26 63
+ 2.357179 2 3 tcp 1040 ------- 1 0.0 4.0 26 63
r 2.359317 2 0 ack 40 ------- 1 4.0 0.0 13 58
+ 2.359317 0 2 tcp 1040 ------- 1 0.0 4.0 27 65
- 2.359317 0 2 tcp 1040 ------- 1 0.0 4.0 27 65
+ 2.359317 0 2 tcp 1040 ------- 1 0.0 4.0 28 66
- 2.360981 0 2 tcp 1040 ------- 1 0.0 4.0 28 66
r 2.36472 3 2 ack 40 ------- 1 4.0 0.0 14 61
+ 2.36472 2 0 ack 40 ------- 1 4.0 0.0 14 61
- 2.36472 2 0 ack 40 ------- 1 4.0 0.0 14 61
r 2.368053 4 3 ack 40 ------- 2 4.1 1.0 7 64
+ 2.368053 3 2 ack 40 ------- 2 4.1 1.0 7 64
- 2.368053 3 2 ack 40 ------- 2 4.1 1.0 7 64
r 2.372453 3 4 tcp 1040 ------- 2 1.0 4.1 8 36
+ 2.372453 4 3 ack 40 ------- 2 4.1 1.0 8 67
- 2.372453 4 3 ack 40 ------- 2 4.1 1.0 8 67
r 2.405653 2 3 tcp 1040 ------- 2 1.0 4.1 10 39
+ 2.405653 3 4 tcp 1040 ------- 2 1.0 4.1 10 39
- 2.405653 3 4 tcp 1040 ------- 2 1.0 4.1 10 39
r 2.410981 0 2 tcp 1040 ------- 1 0.0 4.0 27 65
+ 2.410981 2 3 tcp 1040 ------- 1 0.0 4.0 27 65
- 2.41112 2 3 tcp 1040 ------- 2 1.0 4.1 12 42
r 2.412645 0 2 tcp 1040 ------- 1 0.0 4.0 28 66
+ 2.412645 2 3 tcp 1040 ------- 1 0.0 4.0 28 66
r 2.414784 2 0 ack 40 ------- 1 4.0 0.0 14 61
+ 2.414784 0 2 tcp 1040 ------- 1 0.0 4.0 29 68
- 2.414784 0 2 tcp 1040 ------- 1 0.0 4.0 29 68
+ 2.414784 0 2 tcp 1040 ------- 1 0.0 4.0 30 69
- 2.416448 0 2 tcp 1040 ------- 1 0.0 4.0 30 69
r 2.420187 3 2 ack 40 ------- 2 4.1 1.0 7 64
+ 2.420187 2 1 ack 40 ------- 2 4.1 1.0 7 64
- 2.420187 2 1 ack 40 ------- 2 4.1 1.0 7 64
r 2.42352 4 3 ack 40 ------- 2 4.1 1.0 8 67
+ 2.42352 3 2 ack 40 ------- 2 4.1 1.0 8 67
- 2.42352 3 2 ack 40 ------- 2 4.1 1.0 8 67
r 2.42792 3 4 tcp 1040 ------- 2 1.0 4.1 9 38
+ 2.42792 4 3 ack 40 ------- 2 4.1 1.0 9 70
- 2.42792 4 3 ack 40 ------- 2 4.1 1.0 9 70
r 2.46112 2 3 tcp 1040 ------- 2 1.0 4.1 11 41
+ 2.46112 3 4 tcp 1040 ------- 2 1.0 4.1 11 41
- 2.46112 3 4 tcp 1040 ------- 2 1.0 4.1 11 41
r 2.466448 0 2 tcp 1040 ------- 1 0.0 4.0 29 68
+ 2.466448 2 3 tcp 1040 ------- 1 0.0 4.0 29 68
- 2.466587 2 3 tcp 1040 ------- 2 1.0 4.1 13 44
r 2.468112 0 2 tcp 1040 ------- 1 0.0 4.0 30 69
+ 2.468112 2 3 tcp 1040 ------- 1 0.0 4.0 30 69
r 2.470251 2 1 ack 40 ------- 2 4.1 1.0 7 64
+ 2.470251 1 2 tcp 1040 ------- 2 1.0 4.1 15 71
- 2.470251 1 2 tcp 1040 ------- 2 1.0 4.1 15 71
+ 2.470251 1 2 tcp 1040 ------- 2 1.0 4.1 16 72
- 2.471915 1 2 tcp 1040 ------- 2 1.0 4.1 16 72
r 2.475653 3 2 ack 40 ------- 2 4.1 1.0 8 67
+ 2.475653 2 1 ack 40 ------- 2 4.1 1.0 8 67
- 2.475653 2 1 ack 40 ------- 2 4.1 1.0 8 67
r 2.478987 4 3 ack 40 ------- 2 4.1 1.0 9 70
+ 2.478987 3 2 ack 40 ------- 2 4.1 1.0 9 70
- 2.478987 3 2 ack 40 ------- 2 4.1 1.0 9 70
r 2.483387 3 4 tcp 1040 ------- 2 1.0 4.1 10 39
+ 2.483387 4 3 ack 40 ------- 2 4.1 1.0 10 73
- 2.483387 4 3 ack 40 ------- 2 4.1 1.0 10 73
r 2.516587 2 3 tcp 1040 ------- 2 1.0 4.1 12 42
+ 2.516587 3 4 tcp 1040 ------- 2 1.0 4.1 12 42
- 2.516587 3 4 tcp 1040 ------- 2 1.0 4.1 12 42
r 2.521915 1 2 tcp 1040 ------- 2 1.0 4.1 15 71
+ 2.521915 2 3 tcp 1040 ------- 2 1.0 4.1 15 71
- 2.522053 2 3 tcp 1040 ------- 2 1.0 4.1 14 45
r 2.523579 1 2 tcp 1040 ------- 2 1.0 4.1 16 72
+ 2.523579 2 3 tcp 1040 ------- 2 1.0 4.1 16 72
r 2.525717 2 1 ack 40 ------- 2 4.1 1.0 8 67
+ 2.525717 1 2 tcp 1040 ------- 2 1.0 4.1 17 74
- 2.525717 1 2 tcp 1040 ------- 2 1.0 4.1 17 74
+ 2.525717 1 2 tcp 1040 ------- 2 1.0 4.1 18 75
- 2.527381 1 2 tcp 1040 ------- 2 1.0 4.1 18 75
r 2.53112 3 2 ack 40 ------- 2 4.1 1.0 9 70
+ 2.53112 2 1 ack 40 ------- 2 4.1 1.0 9 70
- 2.53112 2 1 ack 40 ------- 2 4.1 1.0 9 70
r 2.534453 4 3 ack 40 ------- 2 4.1 1.0 10 73
+ 2.534453 3 2 ack 40 ------- 2 4.1 1.0 10 73
- 2.534453 3 2 ack 40 ------- 2 4.1 1.0 10 73
r 2.538853 3 4 tcp 1040 ------- 2 1.0 4.1 11 41
+ 2.538853 4 3 ack 40 ------- 2 4.1 1.0 11 76
- 2.538853 4 3 ack 40 ------- 2 4.1 1.0 11 76
r 2.572053 2 3 tcp 1040 ------- 2 1.0 4.1 13 44
+ 2.572053 3 4 tcp 1040 ------- 2 1.0 4.1 13 44
- 2.572053 3 4 tcp 1040 ------- 2 1.0 4.1 13 44
r 2.577381 1 2 tcp 1040 ------- 2 1.0 4.1 17 74
+ 2.577381 2 3 tcp 1040 ------- 2 1.0 4.1 17 74
- 2.57752 2 3 tcp 1040 ------- 1 0.0 4.0 15 47
r 2.579045 1 2 tcp 1040 ------- 2 1.0 4.1 18 75
+ 2.579045 2 3 tcp 1040 ------- 2 1.0 4.1 18 75
r 2.581184 2 1 ack 40 ------- 2 4.1 1.0 9 70
+ 2.581184 1 2 tcp 1040 ------- 2 1.0 4.1 19 77
- 2.581184 1 2 tcp 1040 ------- 2 1.0 4.1 19 77
+ 2.581184 1 2 tcp 1040 ------- 2 1.0 4.1 20 78
- 2.582848 1 2 tcp 1040 ------- 2 1.0 4.1 20 78
r 2.586587 3 2 ack 40 ------- 2 4.1 1.0 10 73
+ 2.586587 2 1 ack 40 ------- 2 4.1 1.0 10 73
- 2.586587 2 1 ack 40 ------- 2 4.1 1.0 10 73
r 2.58992 4 3 ack 40 ------- 2 4.1 1.0 11 76
+ 2.58992 3 2 ack 40 ------- 2 4.1 1.0 11 76
- 2.58992 3 2 ack 40 ------- 2 4.1 1.0 11 76
r 2.59432 3 4 tcp 1040 ------- 2 1.0 4.1 12 42
+ 2.59432 4 3 ack 40 ------- 2 4.1 1.0 12 79
- 2.59432 4 3 ack 40 ------- 2 4.1 1.0 12 79
r 2.62752 2 3 tcp 1040 ------- 2 1.0 4.1 14 45
+ 2.62752 3 4 tcp 1040 ------- 2 1.0 4.1 14 45
- 2.62752 3 4 tcp 1040 ------- 2 1.0 4.1 14 45
r 2.632848 1 2 tcp 1040 ------- 2 1.0 4.1 19 77
+ 2.632848 2 3 tcp 1040 ------- 2 1.0 4.1 19 77
- 2.632987 2 3 tcp 1040 ------- 1 0.0 4.0 16 48
r 2.634512 1 2 tcp 1040 ------- 2 1.0 4.1 20 78
+ 2.634512 2 3 tcp 1040 ------- 2 1.0 4.1 20 78
r 2.636651 2 1 ack 40 ------- 2 4.1 1.0 10 73
+ 2.636651 1 2 tcp 1040 ------- 2 1.0 4.1 21 80
- 2.636651 1 2 tcp 1040 ------- 2 1.0 4.1 21 80
+ 2.636651 1 2 tcp 1040 ------- 2 1.0 4.1 22 81
- 2.638315 1 2 tcp 1040 ------- 2 1.0 4.1 22 81
r 2.642053 3 2 ack 40 ------- 2 4.1 1.0 11 76
+ 2.642053 2 1 ack 40 ------- 2 4.1 1.0 11 76
- 2.642053 2 1 ack 40 ------- 2 4.1 1.0 11 76
r 2.645387 4 3 ack 40 ------- 2 4.1 1.0 12 79
+ 2.645387 3 2 ack 40 ------- 2 4.1 1.0 12 79
- 2.645387 3 2 ack 40 ------- 2 4.1 1.0 12 79
r 2.649787 3 4 tcp 1040 ------- 2 1.0 4.1 13 44
+ 2.649787 4 3 ack 40 ------- 2 4.1 1.0 13 82
- 2.649787 4 3 ack 40 ------- 2 4.1 1.0 13 82
r 2.682987 2 3 tcp 1040 ------- 1 0.0 4.0 15 47
+ 2.682987 3 4 tcp 1040 ------- 1 0.0 4.0 15 47
- 2.682987 3 4 tcp 1040 ------- 1 0.0 4.0 15 47
r 2.688315 1 2 tcp 1040 ------- 2 1.0 4.1 21 80
+ 2.688315 2 3 tcp 1040 ------- 2 1.0 4.1 21 80
- 2.688453 2 3 tcp 1040 ------- 1 0.0 4.0 17 50
r 2.689979 1 2 tcp 1040 ------- 2 1.0 4.1 22 81
+ 2.689979 2 3 tcp 1040 ------- 2 1.0 4.1 22 81
r 2.692117 2 1 ack 40 ------- 2 4.1 1.0 11 76
+ 2.692117 1 2 tcp 1040 ------- 2 1.0 4.1 23 83
- 2.692117 1 2 tcp 1040 ------- 2 1.0 4.1 23 83
+ 2.692117 1 2 tcp 1040 ------- 2 1.0 4.1 24 84
- 2.693781 1 2 tcp 1040 ------- 2 1.0 4.1 24 84
r 2.69752 3 2 ack 40 ------- 2 4.1 1.0 12 79
+ 2.69752 2 1 ack 40 ------- 2 4.1 1.0 12 79
- 2.69752 2 1 ack 40 ------- 2 4.1 1.0 12 79
r 2.700853 4 3 ack 40 ------- 2 4.1 1.0 13 82
+ 2.700853 3 2 ack 40 ------- 2 4.1 1.0 13 82
- 2.700853 3 2 ack 40 ------- 2 4.1 1.0 13 82
r 2.705253 3 4 tcp 1040 ------- 2 1.0 4.1 14 45
+ 2.705253 4 3 ack 40 ------- 2 4.1 1.0 14 85
- 2.705253 4 3 ack 40 ------- 2 4.1 1.0 14 85
r 2.738453 2 3 tcp 1040 ------- 1 0.0 4.0 16 48
+ 2.738453 3 4 tcp 1040 ------- 1 0.0 4.0 16 48
- 2.738453 3 4 tcp 1040 ------- 1 0.0 4.0 16 48
r 2.743781 1 2 tcp 1040 ------- 2 1.0 4.1 23 83
+ 2.743781 2 3 tcp 1040 ------- 2 1.0 4.1 23 83
- 2.74392 2 3 tcp 1040 ------- 1 0.0 4.0 18 51
r 2.745445 1 2 tcp 1040 ------- 2 1.0 4.1 24 84
+ 2.745445 2 3 tcp 1040 ------- 2 1.0 4.1 24 84
r 2.747584 2 1 ack 40 ------- 2 4.1 1.0 12 79
+ 2.747584 1 2 tcp 1040 ------- 2 1.0 4.1 25 86
- 2.747584 1 2 tcp 1040 ------- 2 1.0 4.1 25 86
+ 2.747584 1 2 tcp 1040 ------- 2 1.0 4.1 26 87
- 2.749248 1 2 tcp 1040 ------- 2 1.0 4.1 26 87
r 2.752987 3 2 ack 40 ------- 2 4.1 1.0 13 82