+ 0.1 1 2 cbr 1000 ------- 2 1.0 5.0 0 0
- 0.1 1 2 cbr 1000 ------- 2 1.0 5.0 0 0
r 0.114 1 2 cbr 1000 ------- 2 1.0 5.0 0 0
+ 0.114 2 3 cbr 1000 ------- 2 1.0 5.0 0 0
- 0.114 2 3 cbr 1000 ------- 2 1.0 5.0 0 0
r 0.240667 2 3 cbr 1000 ------- 2 1.0 5.0 0 0
+ 0.240667 3 5 cbr 1000 ------- 2 1.0 5.0 0 0
- 0.240667 3 5 cbr 1000 ------- 2 1.0 5.0 0 0
r 0.286667 3 5 cbr 1000 ------- 2 1.0 5.0 0 0
+ 0.9 1 2 cbr 1000 ------- 2 1.0 5.0 1 1
- 0.9 1 2 cbr 1000 ------- 2 1.0 5.0 1 1
r 0.914 1 2 cbr 1000 ------- 2 1.0 5.0 1 1
+ 0.914 2 3 cbr 1000 ------- 2 1.0 5.0 1 1
- 0.914 2 3 cbr 1000 ------- 2 1.0 5.0 1 1
+ 1 0 2 tcp 40 ------- 1 0.0 4.0 0 2
- 1 0 2 tcp 40 ------- 1 0.0 4.0 0 2
r 1.01016 0 2 tcp 40 ------- 1 0.0 4.0 0 2
+ 1.01016 2 3 tcp 40 ------- 1 0.0 4.0 0 2
- 1.01016 2 3 tcp 40 ------- 1 0.0 4.0 0 2
r 1.040667 2 3 cbr 1000 ------- 2 1.0 5.0 1 1
+ 1.040667 3 5 cbr 1000 ------- 2 1.0 5.0 1 1
- 1.040667 3 5 cbr 1000 ------- 2 1.0 5.0 1 1
r 1.086667 3 5 cbr 1000 ------- 2 1.0 5.0 1 1
r 1.111227 2 3 tcp 40 ------- 1 0.0 4.0 0 2
+ 1.111227 3 4 tcp 40 ------- 1 0.0 4.0 0 2
- 1.111227 3 4 tcp 40 ------- 1 0.0 4.0 0 2
r 1.151867 3 4 tcp 40 ------- 1 0.0 4.0 0 2
+ 1.151867 4 3 ack 40 ------- 1 4.0 0.0 0 3
- 1.151867 4 3 ack 40 ------- 1 4.0 0.0 0 3
r 1.192507 4 3 ack 40 ------- 1 4.0 0.0 0 3
+ 1.192507 3 2 ack 40 ------- 1 4.0 0.0 0 3
- 1.192507 3 2 ack 40 ------- 1 4.0 0.0 0 3
r 1.293573 3 2 ack 40 ------- 1 4.0 0.0 0 3
+ 1.293573 2 0 ack 40 ------- 1 4.0 0.0 0 3
- 1.293573 2 0 ack 40 ------- 1 4.0 0.0 0 3
r 1.303733 2 0 ack 40 ------- 1 4.0 0.0 0 3
+ 1.303733 0 2 tcp 592 ------- 1 0.0 4.0 1 4
- 1.303733 0 2 tcp 592 ------- 1 0.0 4.0 1 4
+ 1.303733 0 2 tcp 592 ------- 1 0.0 4.0 2 5
- 1.306101 0 2 tcp 592 ------- 1 0.0 4.0 2 5
r 1.316101 0 2 tcp 592 ------- 1 0.0 4.0 1 4
+ 1.316101 2 3 tcp 592 ------- 1 0.0 4.0 1 4
- 1.316101 2 3 tcp 592 ------- 1 0.0 4.0 1 4
r 1.318469 0 2 tcp 592 ------- 1 0.0 4.0 2 5
+ 1.318469 2 3 tcp 592 ------- 1 0.0 4.0 2 5
- 1.331888 2 3 tcp 592 ------- 1 0.0 4.0 2 5
r 1.431888 2 3 tcp 592 ------- 1 0.0 4.0 1 4
+ 1.431888 3 4 tcp 592 ------- 1 0.0 4.0 1 4
- 1.431888 3 4 tcp 592 ------- 1 0.0 4.0 1 4
r 1.447675 2 3 tcp 592 ------- 1 0.0 4.0 2 5
+ 1.447675 3 4 tcp 592 ------- 1 0.0 4.0 2 5
- 1.447675 3 4 tcp 592 ------- 1 0.0 4.0 2 5
r 1.48136 3 4 tcp 592 ------- 1 0.0 4.0 1 4
r 1.497147 3 4 tcp 592 ------- 1 0.0 4.0 2 5
+ 1.497147 4 3 ack 40 ------- 1 4.0 0.0 2 6
- 1.497147 4 3 ack 40 ------- 1 4.0 0.0 2 6
r 1.537787 4 3 ack 40 ------- 1 4.0 0.0 2 6
+ 1.537787 3 2 ack 40 ------- 1 4.0 0.0 2 6
- 1.537787 3 2 ack 40 ------- 1 4.0 0.0 2 6
r 1.638853 3 2 ack 40 ------- 1 4.0 0.0 2 6
+ 1.638853 2 0 ack 40 ------- 1 4.0 0.0 2 6
- 1.638853 2 0 ack 40 ------- 1 4.0 0.0 2 6
r 1.649013 2 0 ack 40 ------- 1 4.0 0.0 2 6
+ 1.649013 0 2 tcp 592 ------- 1 0.0 4.0 3 7
- 1.649013 0 2 tcp 592 ------- 1 0.0 4.0 3 7
+ 1.649013 0 2 tcp 592 ------- 1 0.0 4.0 4 8
+ 1.649013 0 2 tcp 592 ------- 1 0.0 4.0 5 9
- 1.651381 0 2 tcp 592 ------- 1 0.0 4.0 4 8
- 1.653749 0 2 tcp 592 ------- 1 0.0 4.0 5 9
r 1.661381 0 2 tcp 592 ------- 1 0.0 4.0 3 7
+ 1.661381 2 3 tcp 592 ------- 1 0.0 4.0 3 7
- 1.661381 2 3 tcp 592 ------- 1 0.0 4.0 3 7
r 1.663749 0 2 tcp 592 ------- 1 0.0 4.0 4 8
+ 1.663749 2 3 tcp 592 ------- 1 0.0 4.0 4 8
r 1.666117 0 2 tcp 592 ------- 1 0.0 4.0 5 9
+ 1.666117 2 3 tcp 592 ------- 1 0.0 4.0 5 9
- 1.677168 2 3 tcp 592 ------- 1 0.0 4.0 4 8
- 1.692955 2 3 tcp 592 ------- 1 0.0 4.0 5 9
+ 1.7 1 2 cbr 1000 ------- 2 1.0 5.0 2 10
- 1.7 1 2 cbr 1000 ------- 2 1.0 5.0 2 10
r 1.714 1 2 cbr 1000 ------- 2 1.0 5.0 2 10
+ 1.714 2 3 cbr 1000 ------- 2 1.0 5.0 2 10
- 1.714 2 3 cbr 1000 ------- 2 1.0 5.0 2 10
r 1.777168 2 3 tcp 592 ------- 1 0.0 4.0 3 7
+ 1.777168 3 4 tcp 592 ------- 1 0.0 4.0 3 7
- 1.777168 3 4 tcp 592 ------- 1 0.0 4.0 3 7
r 1.792955 2 3 tcp 592 ------- 1 0.0 4.0 4 8
+ 1.792955 3 4 tcp 592 ------- 1 0.0 4.0 4 8
- 1.792955 3 4 tcp 592 ------- 1 0.0 4.0 4 8
r 1.808741 2 3 tcp 592 ------- 1 0.0 4.0 5 9
+ 1.808741 3 4 tcp 592 ------- 1 0.0 4.0 5 9
- 1.808741 3 4 tcp 592 ------- 1 0.0 4.0 5 9
r 1.82664 3 4 tcp 592 ------- 1 0.0 4.0 3 7
r 1.840667 2 3 cbr 1000 ------- 2 1.0 5.0 2 10
+ 1.840667 3 5 cbr 1000 ------- 2 1.0 5.0 2 10
- 1.840667 3 5 cbr 1000 ------- 2 1.0 5.0 2 10
r 1.842427 3 4 tcp 592 ------- 1 0.0 4.0 4 8
+ 1.842427 4 3 ack 40 ------- 1 4.0 0.0 4 11
- 1.842427 4 3 ack 40 ------- 1 4.0 0.0 4 11
r 1.858213 3 4 tcp 592 ------- 1 0.0 4.0 5 9
r 1.883067 4 3 ack 40 ------- 1 4.0 0.0 4 11
+ 1.883067 3 2 ack 40 ------- 1 4.0 0.0 4 11
- 1.883067 3 2 ack 40 ------- 1 4.0 0.0 4 11
r 1.886667 3 5 cbr 1000 ------- 2 1.0 5.0 2 10
+ 1.958213 4 3 ack 40 ------- 1 4.0 0.0 5 12
- 1.958213 4 3 ack 40 ------- 1 4.0 0.0 5 12
r 1.984133 3 2 ack 40 ------- 1 4.0 0.0 4 11
+ 1.984133 2 0 ack 40 ------- 1 4.0 0.0 4 11
- 1.984133 2 0 ack 40 ------- 1 4.0 0.0 4 11
r 1.994293 2 0 ack 40 ------- 1 4.0 0.0 4 11
+ 1.994293 0 2 tcp 592 ------- 1 0.0 4.0 6 13
- 1.994293 0 2 tcp 592 ------- 1 0.0 4.0 6 13
+ 1.994293 0 2 tcp 592 ------- 1 0.0 4.0 7 14
+ 1.994293 0 2 tcp 592 ------- 1 0.0 4.0 8 15
- 1.996661 0 2 tcp 592 ------- 1 0.0 4.0 7 14
r 1.998853 4 3 ack 40 ------- 1 4.0 0.0 5 12
+ 1.998853 3 2 ack 40 ------- 1 4.0 0.0 5 12
- 1.998853 3 2 ack 40 ------- 1 4.0 0.0 5 12
- 1.999029 0 2 tcp 592 ------- 1 0.0 4.0 8 15
r 2.006661 0 2 tcp 592 ------- 1 0.0 4.0 6 13
+ 2.006661 2 3 tcp 592 ------- 1 0.0 4.0 6 13
- 2.006661 2 3 tcp 592 ------- 1 0.0 4.0 6 13
r 2.009029 0 2 tcp 592 ------- 1 0.0 4.0 7 14
+ 2.009029 2 3 tcp 592 ------- 1 0.0 4.0 7 14
r 2.011397 0 2 tcp 592 ------- 1 0.0 4.0 8 15
+ 2.011397 2 3 tcp 592 ------- 1 0.0 4.0 8 15
- 2.022448 2 3 tcp 592 ------- 1 0.0 4.0 7 14
- 2.038235 2 3 tcp 592 ------- 1 0.0 4.0 8 15
r 2.09992 3 2 ack 40 ------- 1 4.0 0.0 5 12
+ 2.09992 2 0 ack 40 ------- 1 4.0 0.0 5 12
- 2.09992 2 0 ack 40 ------- 1 4.0 0.0 5 12
r 2.11008 2 0 ack 40 ------- 1 4.0 0.0 5 12
+ 2.11008 0 2 tcp 592 ------- 1 0.0 4.0 9 16
- 2.11008 0 2 tcp 592 ------- 1 0.0 4.0 9 16
+ 2.11008 0 2 tcp 592 ------- 1 0.0 4.0 10 17
- 2.112448 0 2 tcp 592 ------- 1 0.0 4.0 10 17
r 2.122448 2 3 tcp 592 ------- 1 0.0 4.0 6 13
+ 2.122448 3 4 tcp 592 ------- 1 0.0 4.0 6 13
- 2.122448 3 4 tcp 592 ------- 1 0.0 4.0 6 13
r 2.122448 0 2 tcp 592 ------- 1 0.0 4.0 9 16
+ 2.122448 2 3 tcp 592 ------- 1 0.0 4.0 9 16
- 2.122448 2 3 tcp 592 ------- 1 0.0 4.0 9 16
r 2.124816 0 2 tcp 592 ------- 1 0.0 4.0 10 17
+ 2.124816 2 3 tcp 592 ------- 1 0.0 4.0 10 17
r 2.138235 2 3 tcp 592 ------- 1 0.0 4.0 7 14
+ 2.138235 3 4 tcp 592 ------- 1 0.0 4.0 7 14
- 2.138235 3 4 tcp 592 ------- 1 0.0 4.0 7 14
- 2.138235 2 3 tcp 592 ------- 1 0.0 4.0 10 17
r 2.154021 2 3 tcp 592 ------- 1 0.0 4.0 8 15
+ 2.154021 3 4 tcp 592 ------- 1 0.0 4.0 8 15
- 2.154021 3 4 tcp 592 ------- 1 0.0 4.0 8 15
r 2.17192 3 4 tcp 592 ------- 1 0.0 4.0 6 13
r 2.187707 3 4 tcp 592 ------- 1 0.0 4.0 7 14
+ 2.187707 4 3 ack 40 ------- 1 4.0 0.0 7 18
- 2.187707 4 3 ack 40 ------- 1 4.0 0.0 7 18
r 2.203493 3 4 tcp 592 ------- 1 0.0 4.0 8 15
r 2.228347 4 3 ack 40 ------- 1 4.0 0.0 7 18
+ 2.228347 3 2 ack 40 ------- 1 4.0 0.0 7 18
- 2.228347 3 2 ack 40 ------- 1 4.0 0.0 7 18
r 2.238235 2 3 tcp 592 ------- 1 0.0 4.0 9 16
+ 2.238235 3 4 tcp 592 ------- 1 0.0 4.0 9 16
- 2.238235 3 4 tcp 592 ------- 1 0.0 4.0 9 16
r 2.254021 2 3 tcp 592 ------- 1 0.0 4.0 10 17
+ 2.254021 3 4 tcp 592 ------- 1 0.0 4.0 10 17
- 2.254021 3 4 tcp 592 ------- 1 0.0 4.0 10 17
r 2.287707 3 4 tcp 592 ------- 1 0.0 4.0 9 16
+ 2.287707 4 3 ack 40 ------- 1 4.0 0.0 9 19
- 2.287707 4 3 ack 40 ------- 1 4.0 0.0 9 19
r 2.303493 3 4 tcp 592 ------- 1 0.0 4.0 10 17
r 2.328347 4 3 ack 40 ------- 1 4.0 0.0 9 19
+ 2.328347 3 2 ack 40 ------- 1 4.0 0.0 9 19
- 2.328347 3 2 ack 40 ------- 1 4.0 0.0 9 19
r 2.329413 3 2 ack 40 ------- 1 4.0 0.0 7 18
+ 2.329413 2 0 ack 40 ------- 1 4.0 0.0 7 18
- 2.329413 2 0 ack 40 ------- 1 4.0 0.0 7 18
r 2.339573 2 0 ack 40 ------- 1 4.0 0.0 7 18
+ 2.339573 0 2 tcp 592 ------- 1 0.0 4.0 11 20
- 2.339573 0 2 tcp 592 ------- 1 0.0 4.0 11 20
+ 2.339573 0 2 tcp 592 ------- 1 0.0 4.0 12 21
+ 2.339573 0 2 tcp 592 ------- 1 0.0 4.0 13 22
- 2.341941 0 2 tcp 592 ------- 1 0.0 4.0 12 21
- 2.344309 0 2 tcp 592 ------- 1 0.0 4.0 13 22
r 2.351941 0 2 tcp 592 ------- 1 0.0 4.0 11 20
+ 2.351941 2 3 tcp 592 ------- 1 0.0 4.0 11 20
- 2.351941 2 3 tcp 592 ------- 1 0.0 4.0 11 20
r 2.354309 0 2 tcp 592 ------- 1 0.0 4.0 12 21
+ 2.354309 2 3 tcp 592 ------- 1 0.0 4.0 12 21
r 2.356677 0 2 tcp 592 ------- 1 0.0 4.0 13 22
+ 2.356677 2 3 tcp 592 ------- 1 0.0 4.0 13 22
- 2.367728 2 3 tcp 592 ------- 1 0.0 4.0 12 21
- 2.383515 2 3 tcp 592 ------- 1 0.0 4.0 13 22
+ 2.403493 4 3 ack 40 ------- 1 4.0 0.0 10 23
- 2.403493 4 3 ack 40 ------- 1 4.0 0.0 10 23
r 2.429413 3 2 ack 40 ------- 1 4.0 0.0 9 19
+ 2.429413 2 0 ack 40 ------- 1 4.0 0.0 9 19
- 2.429413 2 0 ack 40 ------- 1 4.0 0.0 9 19
r 2.439573 2 0 ack 40 ------- 1 4.0 0.0 9 19
+ 2.439573 0 2 tcp 592 ------- 1 0.0 4.0 14 24
- 2.439573 0 2 tcp 592 ------- 1 0.0 4.0 14 24
+ 2.439573 0 2 tcp 592 ------- 1 0.0 4.0 15 25
+ 2.439573 0 2 tcp 592 ------- 1 0.0 4.0 16 26
- 2.441941 0 2 tcp 592 ------- 1 0.0 4.0 15 25
r 2.444133 4 3 ack 40 ------- 1 4.0 0.0 10 23
+ 2.444133 3 2 ack 40 ------- 1 4.0 0.0 10 23
- 2.444133 3 2 ack 40 ------- 1 4.0 0.0 10 23
- 2.444309 0 2 tcp 592 ------- 1 0.0 4.0 16 26
r 2.451941 0 2 tcp 592 ------- 1 0.0 4.0 14 24
+ 2.451941 2 3 tcp 592 ------- 1 0.0 4.0 14 24
- 2.451941 2 3 tcp 592 ------- 1 0.0 4.0 14 24
r 2.454309 0 2 tcp 592 ------- 1 0.0 4.0 15 25
+ 2.454309 2 3 tcp 592 ------- 1 0.0 4.0 15 25
r 2.456677 0 2 tcp 592 ------- 1 0.0 4.0 16 26
+ 2.456677 2 3 tcp 592 ------- 1 0.0 4.0 16 26
r 2.467728 2 3 tcp 592 ------- 1 0.0 4.0 11 20
+ 2.467728 3 4 tcp 592 ------- 1 0.0 4.0 11 20
- 2.467728 3 4 tcp 592 ------- 1 0.0 4.0 11 20
- 2.467728 2 3 tcp 592 ------- 1 0.0 4.0 15 25
r 2.483515 2 3 tcp 592 ------- 1 0.0 4.0 12 21
+ 2.483515 3 4 tcp 592 ------- 1 0.0 4.0 12 21
- 2.483515 3 4 tcp 592 ------- 1 0.0 4.0 12 21
- 2.483515 2 3 tcp 592 ------- 1 0.0 4.0 16 26
r 2.499301 2 3 tcp 592 ------- 1 0.0 4.0 13 22
+ 2.499301 3 4 tcp 592 ------- 1 0.0 4.0 13 22
- 2.499301 3 4 tcp 592 ------- 1 0.0 4.0 13 22
+ 2.5 1 2 cbr 1000 ------- 2 1.0 5.0 3 27
- 2.5 1 2 cbr 1000 ------- 2 1.0 5.0 3 27
r 2.514 1 2 cbr 1000 ------- 2 1.0 5.0 3 27
+ 2.514 2 3 cbr 1000 ------- 2 1.0 5.0 3 27
- 2.514 2 3 cbr 1000 ------- 2 1.0 5.0 3 27
r 2.5172 3 4 tcp 592 ------- 1 0.0 4.0 11 20
r 2.532987 3 4 tcp 592 ------- 1 0.0 4.0 12 21
+ 2.532987 4 3 ack 40 ------- 1 4.0 0.0 12 28
- 2.532987 4 3 ack 40 ------- 1 4.0 0.0 12 28
r 2.5452 3 2 ack 40 ------- 1 4.0 0.0 10 23
+ 2.5452 2 0 ack 40 ------- 1 4.0 0.0 10 23
- 2.5452 2 0 ack 40 ------- 1 4.0 0.0 10 23
r 2.548773 3 4 tcp 592 ------- 1 0.0 4.0 13 22
r 2.55536 2 0 ack 40 ------- 1 4.0 0.0 10 23
+ 2.55536 0 2 tcp 592 ------- 1 0.0 4.0 17 29
- 2.55536 0 2 tcp 592 ------- 1 0.0 4.0 17 29
+ 2.55536 0 2 tcp 592 ------- 1 0.0 4.0 18 30
- 2.557728 0 2 tcp 592 ------- 1 0.0 4.0 18 30
r 2.567728 2 3 tcp 592 ------- 1 0.0 4.0 14 24
+ 2.567728 3 4 tcp 592 ------- 1 0.0 4.0 14 24
- 2.567728 3 4 tcp 592 ------- 1 0.0 4.0 14 24
r 2.567728 0 2 tcp 592 ------- 1 0.0 4.0 17 29
+ 2.567728 2 3 tcp 592 ------- 1 0.0 4.0 17 29
- 2.567728 2 3 tcp 592 ------- 1 0.0 4.0 17 29
r 2.570096 0 2 tcp 592 ------- 1 0.0 4.0 18 30
+ 2.570096 2 3 tcp 592 ------- 1 0.0 4.0 18 30
r 2.573627 4 3 ack 40 ------- 1 4.0 0.0 12 28
+ 2.573627 3 2 ack 40 ------- 1 4.0 0.0 12 28
- 2.573627 3 2 ack 40 ------- 1 4.0 0.0 12 28
r 2.583515 2 3 tcp 592 ------- 1 0.0 4.0 15 25
+ 2.583515 3 4 tcp 592 ------- 1 0.0 4.0 15 25
- 2.583515 3 4 tcp 592 ------- 1 0.0 4.0 15 25
- 2.583515 2 3 tcp 592 ------- 1 0.0 4.0 18 30
r 2.599301 2 3 tcp 592 ------- 1 0.0 4.0 16 26
+ 2.599301 3 4 tcp 592 ------- 1 0.0 4.0 16 26
- 2.599301 3 4 tcp 592 ------- 1 0.0 4.0 16 26
r 2.6172 3 4 tcp 592 ------- 1 0.0 4.0 14 24
+ 2.6172 4 3 ack 40 ------- 1 4.0 0.0 14 31
- 2.6172 4 3 ack 40 ------- 1 4.0 0.0 14 31
r 2.632987 3 4 tcp 592 ------- 1 0.0 4.0 15 25
r 2.640667 2 3 cbr 1000 ------- 2 1.0 5.0 3 27
+ 2.640667 3 5 cbr 1000 ------- 2 1.0 5.0 3 27
- 2.640667 3 5 cbr 1000 ------- 2 1.0 5.0 3 27
r 2.648773 3 4 tcp 592 ------- 1 0.0 4.0 16 26
+ 2.648773 4 3 ack 40 ------- 1 4.0 0.0 16 32
- 2.648773 4 3 ack 40 ------- 1 4.0 0.0 16 32
r 2.65784 4 3 ack 40 ------- 1 4.0 0.0 14 31
+ 2.65784 3 2 ack 40 ------- 1 4.0 0.0 14 31
- 2.65784 3 2 ack 40 ------- 1 4.0 0.0 14 31
r 2.674693 3 2 ack 40 ------- 1 4.0 0.0 12 28
+ 2.674693 2 0 ack 40 ------- 1 4.0 0.0 12 28
- 2.674693 2 0 ack 40 ------- 1 4.0 0.0 12 28
r 2.683515 2 3 tcp 592 ------- 1 0.0 4.0 17 29
+ 2.683515 3 4 tcp 592 ------- 1 0.0 4.0 17 29
- 2.683515 3 4 tcp 592 ------- 1 0.0 4.0 17 29
r 2.684853 2 0 ack 40 ------- 1 4.0 0.0 12 28
+ 2.684853 0 2 tcp 592 ------- 1 0.0 4.0 19 33
- 2.684853 0 2 tcp 592 ------- 1 0.0 4.0 19 33
+ 2.684853 0 2 tcp 592 ------- 1 0.0 4.0 20 34
+ 2.684853 0 2 tcp 592 ------- 1 0.0 4.0 21 35
r 2.686667 3 5 cbr 1000 ------- 2 1.0 5.0 3 27
- 2.687221 0 2 tcp 592 ------- 1 0.0 4.0 20 34
r 2.689413 4 3 ack 40 ------- 1 4.0 0.0 16 32
+ 2.689413 3 2 ack 40 ------- 1 4.0 0.0 16 32
- 2.689413 3 2 ack 40 ------- 1 4.0 0.0 16 32
- 2.689589 0 2 tcp 592 ------- 1 0.0 4.0 21 35
r 2.697221 0 2 tcp 592 ------- 1 0.0 4.0 19 33
+ 2.697221 2 3 tcp 592 ------- 1 0.0 4.0 19 33
- 2.697221 2 3 tcp 592 ------- 1 0.0 4.0 19 33
r 2.699301 2 3 tcp 592 ------- 1 0.0 4.0 18 30
+ 2.699301 3 4 tcp 592 ------- 1 0.0 4.0 18 30
- 2.699301 3 4 tcp 592 ------- 1 0.0 4.0 18 30
r 2.699589 0 2 tcp 592 ------- 1 0.0 4.0 20 34
+ 2.699589 2 3 tcp 592 ------- 1 0.0 4.0 20 34
r 2.701957 0 2 tcp 592 ------- 1 0.0 4.0 21 35
+ 2.701957 2 3 tcp 592 ------- 1 0.0 4.0 21 35
- 2.713008 2 3 tcp 592 ------- 1 0.0 4.0 20 34
- 2.728795 2 3 tcp 592 ------- 1 0.0 4.0 21 35
r 2.732987 3 4 tcp 592 ------- 1 0.0 4.0 17 29
r 2.748773 3 4 tcp 592 ------- 1 0.0 4.0 18 30
+ 2.748773 4 3 ack 40 ------- 1 4.0 0.0 18 36
- 2.748773 4 3 ack 40 ------- 1 4.0 0.0 18 36
r 2.758907 3 2 ack 40 ------- 1 4.0 0.0 14 31
+ 2.758907 2 0 ack 40 ------- 1 4.0 0.0 14 31
- 2.758907 2 0 ack 40 ------- 1 4.0 0.0 14 31
r 2.769067 2 0 ack 40 ------- 1 4.0 0.0 14 31
+ 2.769067 0 2 tcp 592 ------- 1 0.0 4.0 22 37
- 2.769067 0 2 tcp 592 ------- 1 0.0 4.0 22 37
+ 2.769067 0 2 tcp 592 ------- 1 0.0 4.0 23 38
+ 2.769067 0 2 tcp 592 ------- 1 0.0 4.0 24 39
- 2.771435 0 2 tcp 592 ------- 1 0.0 4.0 23 38
- 2.773803 0 2 tcp 592 ------- 1 0.0 4.0 24 39
r 2.781435 0 2 tcp 592 ------- 1 0.0 4.0 22 37
+ 2.781435 2 3 tcp 592 ------- 1 0.0 4.0 22 37
- 2.781435 2 3 tcp 592 ------- 1 0.0 4.0 22 37
r 2.783803 0 2 tcp 592 ------- 1 0.0 4.0 23 38
+ 2.783803 2 3 tcp 592 ------- 1 0.0 4.0 23 38
r 2.786171 0 2 tcp 592 ------- 1 0.0 4.0 24 39
+ 2.786171 2 3 tcp 592 ------- 1 0.0 4.0 24 39
r 2.789413 4 3 ack 40 ------- 1 4.0 0.0 18 36
+ 2.789413 3 2 ack 40 ------- 1 4.0 0.0 18 36
- 2.789413 3 2 ack 40 ------- 1 4.0 0.0 18 36
r 2.79048 3 2 ack 40 ------- 1 4.0 0.0 16 32
+ 2.79048 2 0 ack 40 ------- 1 4.0 0.0 16 32
- 2.79048 2 0 ack 40 ------- 1 4.0 0.0 16 32
- 2.797221 2 3 tcp 592 ------- 1 0.0 4.0 23 38
r 2.80064 2 0 ack 40 ------- 1 4.0 0.0 16 32
+ 2.80064 0 2 tcp 592 ------- 1 0.0 4.0 25 40
- 2.80064 0 2 tcp 592 ------- 1 0.0 4.0 25 40
+ 2.80064 0 2 tcp 592 ------- 1 0.0 4.0 26 41
+ 2.80064 0 2 tcp 592 ------- 1 0.0 4.0 27 42
- 2.803008 0 2 tcp 592 ------- 1 0.0 4.0 26 41
- 2.805376 0 2 tcp 592 ------- 1 0.0 4.0 27 42
r 2.813008 2 3 tcp 592 ------- 1 0.0 4.0 19 33
+ 2.813008 3 4 tcp 592 ------- 1 0.0 4.0 19 33
- 2.813008 3 4 tcp 592 ------- 1 0.0 4.0 19 33
- 2.813008 2 3 tcp 592 ------- 1 0.0 4.0 24 39
r 2.813008 0 2 tcp 592 ------- 1 0.0 4.0 25 40
+ 2.813008 2 3 tcp 592 ------- 1 0.0 4.0 25 40
r 2.815376 0 2 tcp 592 ------- 1 0.0 4.0 26 41
+ 2.815376 2 3 tcp 592 ------- 1 0.0 4.0 26 41
r 2.817744 0 2 tcp 592 ------- 1 0.0 4.0 27 42
+ 2.817744 2 3 tcp 592 ------- 1 0.0 4.0 27 42
r 2.828795 2 3 tcp 592 ------- 1 0.0 4.0 20 34
+ 2.828795 3 4 tcp 592 ------- 1 0.0 4.0 20 34
- 2.828795 3 4 tcp 592 ------- 1 0.0 4.0 20 34
- 2.828795 2 3 tcp 592 ------- 1 0.0 4.0 25 40
r 2.844581 2 3 tcp 592 ------- 1 0.0 4.0 21 35
+ 2.844581 3 4 tcp 592 ------- 1 0.0 4.0 21 35
- 2.844581 3 4 tcp 592 ------- 1 0.0 4.0 21 35
- 2.844581 2 3 tcp 592 ------- 1 0.0 4.0 26 41
- 2.860368 2 3 tcp 592 ------- 1 0.0 4.0 27 42
r 2.86248 3 4 tcp 592 ------- 1 0.0 4.0 19 33
r 2.878267 3 4 tcp 592 ------- 1 0.0 4.0 20 34
+ 2.878267 4 3 ack 40 ------- 1 4.0 0.0 20 43
- 2.878267 4 3 ack 40 ------- 1 4.0 0.0 20 43
r 2.89048 3 2 ack 40 ------- 1 4.0 0.0 18 36
+ 2.89048 2 0 ack 40 ------- 1 4.0 0.0 18 36
- 2.89048 2 0 ack 40 ------- 1 4.0 0.0 18 36
r 2.894053 3 4 tcp 592 ------- 1 0.0 4.0 21 35
r 2.897221 2 3 tcp 592 ------- 1 0.0 4.0 22 37
+ 2.897221 3 4 tcp 592 ------- 1 0.0 4.0 22 37
- 2.897221 3 4 tcp 592 ------- 1 0.0 4.0 22 37
r 2.90064 2 0 ack 40 ------- 1 4.0 0.0 18 36
+ 2.90064 0 2 tcp 592 ------- 1 0.0 4.0 28 44
- 2.90064 0 2 tcp 592 ------- 1 0.0 4.0 28 44
+ 2.90064 0 2 tcp 592 ------- 1 0.0 4.0 29 45
+ 2.90064 0 2 tcp 592 ------- 1 0.0 4.0 30 46
- 2.903008 0 2 tcp 592 ------- 1 0.0 4.0 29 45
- 2.905376 0 2 tcp 592 ------- 1 0.0 4.0 30 46
r 2.913008 2 3 tcp 592 ------- 1 0.0 4.0 23 38
+ 2.913008 3 4 tcp 592 ------- 1 0.0 4.0 23 38
- 2.913008 3 4 tcp 592 ------- 1 0.0 4.0 23 38
r 2.913008 0 2 tcp 592 ------- 1 0.0 4.0 28 44
+ 2.913008 2 3 tcp 592 ------- 1 0.0 4.0 28 44
- 2.913008 2 3 tcp 592 ------- 1 0.0 4.0 28 44
r 2.915376 0 2 tcp 592 ------- 1 0.0 4.0 29 45
+ 2.915376 2 3 tcp 592 ------- 1 0.0 4.0 29 45
r 2.917744 0 2 tcp 592 ------- 1 0.0 4.0 30 46
+ 2.917744 2 3 tcp 592 ------- 1 0.0 4.0 30 46
r 2.918907 4 3 ack 40 ------- 1 4.0 0.0 20 43
+ 2.918907 3 2 ack 40 ------- 1 4.0 0.0 20 43
- 2.918907 3 2 ack 40 ------- 1 4.0 0.0 20 43
r 2.928795 2 3 tcp 592 ------- 1 0.0 4.0 24 39
+ 2.928795 3 4 tcp 592 ------- 1 0.0 4.0 24 39
- 2.928795 3 4 tcp 592 ------- 1 0.0 4.0 24 39
- 2.928795 2 3 tcp 592 ------- 1 0.0 4.0 29 45
r 2.944581 2 3 tcp 592 ------- 1 0.0 4.0 25 40
+ 2.944581 3 4 tcp 592 ------- 1 0.0 4.0 25 40
- 2.944581 3 4 tcp 592 ------- 1 0.0 4.0 25 40
- 2.944581 2 3 tcp 592 ------- 1 0.0 4.0 30 46
r 2.946693 3 4 tcp 592 ------- 1 0.0 4.0 22 37
+ 2.946693 4 3 ack 40 ------- 1 4.0 0.0 22 47
- 2.946693 4 3 ack 40 ------- 1 4.0 0.0 22 47
r 2.960368 2 3 tcp 592 ------- 1 0.0 4.0 26 41
+ 2.960368 3 4 tcp 592 ------- 1 0.0 4.0 26 41
- 2.960368 3 4 tcp 592 ------- 1 0.0 4.0 26 41
r 2.96248 3 4 tcp 592 ------- 1 0.0 4.0 23 38
r 2.976155 2 3 tcp 592 ------- 1 0.0 4.0 27 42
+ 2.976155 3 4 tcp 592 ------- 1 0.0 4.0 27 42
- 2.976155 3 4 tcp 592 ------- 1 0.0 4.0 27 42
r 2.978267 3 4 tcp 592 ------- 1 0.0 4.0 24 39
+ 2.978267 4 3 ack 40 ------- 1 4.0 0.0 24 48
- 2.978267 4 3 ack 40 ------- 1 4.0 0.0 24 48
r 2.987333 4 3 ack 40 ------- 1 4.0 0.0 22 47
+ 2.987333 3 2 ack 40 ------- 1 4.0 0.0 22 47
- 2.987333 3 2 ack 40 ------- 1 4.0 0.0 22 47
r 2.994053 3 4 tcp 592 ------- 1 0.0 4.0 25 40
r 3.00984 3 4 tcp 592 ------- 1 0.0 4.0 26 41
+ 3.00984 4 3 ack 40 ------- 1 4.0 0.0 26 49
- 3.00984 4 3 ack 40 ------- 1 4.0 0.0 26 49
r 3.018907 4 3 ack 40 ------- 1 4.0 0.0 24 48
+ 3.018907 3 2 ack 40 ------- 1 4.0 0.0 24 48
- 3.018907 3 2 ack 40 ------- 1 4.0 0.0 24 48
r 3.019973 3 2 ack 40 ------- 1 4.0 0.0 20 43
+ 3.019973 2 0 ack 40 ------- 1 4.0 0.0 20 43
- 3.019973 2 0 ack 40 ------- 1 4.0 0.0 20 43
r 3.025627 3 4 tcp 592 ------- 1 0.0 4.0 27 42
r 3.028795 2 3 tcp 592 ------- 1 0.0 4.0 28 44
+ 3.028795 3 4 tcp 592 ------- 1 0.0 4.0 28 44
- 3.028795 3 4 tcp 592 ------- 1 0.0 4.0 28 44
r 3.030133 2 0 ack 40 ------- 1 4.0 0.0 20 43
+ 3.030133 0 2 tcp 592 ------- 1 0.0 4.0 31 50
- 3.030133 0 2 tcp 592 ------- 1 0.0 4.0 31 50
+ 3.030133 0 2 tcp 592 ------- 1 0.0 4.0 32 51
+ 3.030133 0 2 tcp 592 ------- 1 0.0 4.0 33 52
- 3.032501 0 2 tcp 592 ------- 1 0.0 4.0 32 51
- 3.034869 0 2 tcp 592 ------- 1 0.0 4.0 33 52
r 3.042501 0 2 tcp 592 ------- 1 0.0 4.0 31 50
+ 3.042501 2 3 tcp 592 ------- 1 0.0 4.0 31 50
- 3.042501 2 3 tcp 592 ------- 1 0.0 4.0 31 50
r 3.044581 2 3 tcp 592 ------- 1 0.0 4.0 29 45
+ 3.044581 3 4 tcp 592 ------- 1 0.0 4.0 29 45
- 3.044581 3 4 tcp 592 ------- 1 0.0 4.0 29 45
r 3.044869 0 2 tcp 592 ------- 1 0.0 4.0 32 51
+ 3.044869 2 3 tcp 592 ------- 1 0.0 4.0 32 51
r 3.047237 0 2 tcp 592 ------- 1 0.0 4.0 33 52
+ 3.047237 2 3 tcp 592 ------- 1 0.0 4.0 33 52
r 3.05048 4 3 ack 40 ------- 1 4.0 0.0 26 49
+ 3.05048 3 2 ack 40 ------- 1 4.0 0.0 26 49
- 3.05048 3 2 ack 40 ------- 1 4.0 0.0 26 49
- 3.058288 2 3 tcp 592 ------- 1 0.0 4.0 32 51
r 3.060368 2 3 tcp 592 ------- 1 0.0 4.0 30 46
+ 3.060368 3 4 tcp 592 ------- 1 0.0 4.0 30 46
- 3.060368 3 4 tcp 592 ------- 1 0.0 4.0 30 46
- 3.074075 2 3 tcp 592 ------- 1 0.0 4.0 33 52
r 3.078267 3 4 tcp 592 ------- 1 0.0 4.0 28 44
+ 3.078267 4 3 ack 40 ------- 1 4.0 0.0 28 53
- 3.078267 4 3 ack 40 ------- 1 4.0 0.0 28 53
r 3.0884 3 2 ack 40 ------- 1 4.0 0.0 22 47
+ 3.0884 2 0 ack 40 ------- 1 4.0 0.0 22 47
- 3.0884 2 0 ack 40 ------- 1 4.0 0.0 22 47
r 3.094053 3 4 tcp 592 ------- 1 0.0 4.0 29 45
r 3.09856 2 0 ack 40 ------- 1 4.0 0.0 22 47
+ 3.09856 0 2 tcp 592 ------- 1 0.0 4.0 34 54
- 3.09856 0 2 tcp 592 ------- 1 0.0 4.0 34 54
+ 3.09856 0 2 tcp 592 ------- 1 0.0 4.0 35 55
+ 3.09856 0 2 tcp 592 ------- 1 0.0 4.0 36 56
- 3.100928 0 2 tcp 592 ------- 1 0.0 4.0 35 55
- 3.103296 0 2 tcp 592 ------- 1 0.0 4.0 36 56
r 3.10984 3 4 tcp 592 ------- 1 0.0 4.0 30 46
+ 3.10984 4 3 ack 40 ------- 1 4.0 0.0 30 57
- 3.10984 4 3 ack 40 ------- 1 4.0 0.0 30 57
r 3.110928 0 2 tcp 592 ------- 1 0.0 4.0 34 54
+ 3.110928 2 3 tcp 592 ------- 1 0.0 4.0 34 54
- 3.110928 2 3 tcp 592 ------- 1 0.0 4.0 34 54
r 3.113296 0 2 tcp 592 ------- 1 0.0 4.0 35 55
+ 3.113296 2 3 tcp 592 ------- 1 0.0 4.0 35 55
r 3.115664 0 2 tcp 592 ------- 1 0.0 4.0 36 56
+ 3.115664 2 3 tcp 592 ------- 1 0.0 4.0 36 56
r 3.118907 4 3 ack 40 ------- 1 4.0 0.0 28 53
+ 3.118907 3 2 ack 40 ------- 1 4.0 0.0 28 53
- 3.118907 3 2 ack 40 ------- 1 4.0 0.0 28 53
r 3.119973 3 2 ack 40 ------- 1 4.0 0.0 24 48
+ 3.119973 2 0 ack 40 ------- 1 4.0 0.0 24 48
- 3.119973 2 0 ack 40 ------- 1 4.0 0.0 24 48
- 3.126715 2 3 tcp 592 ------- 1 0.0 4.0 35 55
r 3.130133 2 0 ack 40 ------- 1 4.0 0.0 24 48
+ 3.130133 0 2 tcp 592 ------- 1 0.0 4.0 37 58
- 3.130133 0 2 tcp 592 ------- 1 0.0 4.0 37 58
+ 3.130133 0 2 tcp 592 ------- 1 0.0 4.0 38 59
+ 3.130133 0 2 tcp 592 ------- 1 0.0 4.0 39 60
- 3.132501 0 2 tcp 592 ------- 1 0.0 4.0 38 59
- 3.134869 0 2 tcp 592 ------- 1 0.0 4.0 39 60
- 3.142501 2 3 tcp 592 ------- 1 0.0 4.0 36 56
r 3.142501 0 2 tcp 592 ------- 1 0.0 4.0 37 58
+ 3.142501 2 3 tcp 592 ------- 1 0.0 4.0 37 58
r 3.144869 0 2 tcp 592 ------- 1 0.0 4.0 38 59
+ 3.144869 2 3 tcp 592 ------- 1 0.0 4.0 38 59
r 3.147237 0 2 tcp 592 ------- 1 0.0 4.0 39 60
+ 3.147237 2 3 tcp 592 ------- 1 0.0 4.0 39 60
r 3.15048 4 3 ack 40 ------- 1 4.0 0.0 30 57
+ 3.15048 3 2 ack 40 ------- 1 4.0 0.0 30 57
- 3.15048 3 2 ack 40 ------- 1 4.0 0.0 30 57
r 3.151547 3 2 ack 40 ------- 1 4.0 0.0 26 49
+ 3.151547 2 0 ack 40 ------- 1 4.0 0.0 26 49
- 3.151547 2 0 ack 40 ------- 1 4.0 0.0 26 49
r 3.158288 2 3 tcp 592 ------- 1 0.0 4.0 31 50
+ 3.158288 3 4 tcp 592 ------- 1 0.0 4.0 31 50
- 3.158288 3 4 tcp 592 ------- 1 0.0 4.0 31 50
- 3.158288 2 3 tcp 592 ------- 1 0.0 4.0 37 58
r 3.161707 2 0 ack 40 ------- 1 4.0 0.0 26 49
+ 3.161707 0 2 tcp 592 ------- 1 0.0 4.0 40 61
- 3.161707 0 2 tcp 592 ------- 1 0.0 4.0 40 61
+ 3.161707 0 2 tcp 592 ------- 1 0.0 4.0 41 62
+ 3.161707 0 2 tcp 592 ------- 1 0.0 4.0 42 63
- 3.164075 0 2 tcp 592 ------- 1 0.0 4.0 41 62
- 3.166443 0 2 tcp 592 ------- 1 0.0 4.0 42 63
r 3.174075 2 3 tcp 592 ------- 1 0.0 4.0 32 51
+ 3.174075 3 4 tcp 592 ------- 1 0.0 4.0 32 51
- 3.174075 3 4 tcp 592 ------- 1 0.0 4.0 32 51
- 3.174075 2 3 tcp 592 ------- 1 0.0 4.0 38 59
r 3.174075 0 2 tcp 592 ------- 1 0.0 4.0 40 61
+ 3.174075 2 3 tcp 592 ------- 1 0.0 4.0 40 61
r 3.176443 0 2 tcp 592 ------- 1 0.0 4.0 41 62
+ 3.176443 2 3 tcp 592 ------- 1 0.0 4.0 41 62
r 3.178811 0 2 tcp 592 ------- 1 0.0 4.0 42 63
+ 3.178811 2 3 tcp 592 ------- 1 0.0 4.0 42 63
r 3.189861 2 3 tcp 592 ------- 1 0.0 4.0 33 52
+ 3.189861 3 4 tcp 592 ------- 1 0.0 4.0 33 52
- 3.189861 3 4 tcp 592 ------- 1 0.0 4.0 33 52
- 3.189861 2 3 tcp 592 ------- 1 0.0 4.0 39 60
- 3.205648 2 3 tcp 592 ------- 1 0.0 4.0 40 61
r 3.20776 3 4 tcp 592 ------- 1 0.0 4.0 31 50
r 3.219973 3 2 ack 40 ------- 1 4.0 0.0 28 53
+ 3.219973 2 0 ack 40 ------- 1 4.0 0.0 28 53
- 3.219973 2 0 ack 40 ------- 1 4.0 0.0 28 53
- 3.221435 2 3 tcp 592 ------- 1 0.0 4.0 41 62
r 3.223547 3 4 tcp 592 ------- 1 0.0 4.0 32 51
+ 3.223547 4 3 ack 40 ------- 1 4.0 0.0 32 64
- 3.223547 4 3 ack 40 ------- 1 4.0 0.0 32 64
r 3.226715 2 3 tcp 592 ------- 1 0.0 4.0 34 54
+ 3.226715 3 4 tcp 592 ------- 1 0.0 4.0 34 54
- 3.226715 3 4 tcp 592 ------- 1 0.0 4.0 34 54
r 3.230133 2 0 ack 40 ------- 1 4.0 0.0 28 53
+ 3.230133 0 2 tcp 592 ------- 1 0.0 4.0 43 65
- 3.230133 0 2 tcp 592 ------- 1 0.0 4.0 43 65
+ 3.230133 0 2 tcp 592 ------- 1 0.0 4.0 44 66
+ 3.230133 0 2 tcp 592 ------- 1 0.0 4.0 45 67
- 3.232501 0 2 tcp 592 ------- 1 0.0 4.0 44 66
- 3.234869 0 2 tcp 592 ------- 1 0.0 4.0 45 67
- 3.237221 2 3 tcp 592 ------- 1 0.0 4.0 42 63
r 3.239333 3 4 tcp 592 ------- 1 0.0 4.0 33 52
r 3.242501 2 3 tcp 592 ------- 1 0.0 4.0 35 55
+ 3.242501 3 4 tcp 592 ------- 1 0.0 4.0 35 55
- 3.242501 3 4 tcp 592 ------- 1 0.0 4.0 35 55
r 3.242501 0 2 tcp 592 ------- 1 0.0 4.0 43 65
+ 3.242501 2 3 tcp 592 ------- 1 0.0 4.0 43 65
r 3.244869 0 2 tcp 592 ------- 1 0.0 4.0 44 66
+ 3.244869 2 3 tcp 592 ------- 1 0.0 4.0 44 66
r 3.247237 0 2 tcp 592 ------- 1 0.0 4.0 45 67
+ 3.247237 2 3 tcp 592 ------- 1 0.0 4.0 45 67
r 3.251547 3 2 ack 40 ------- 1 4.0 0.0 30 57
+ 3.251547 2 0 ack 40 ------- 1 4.0 0.0 30 57
- 3.251547 2 0 ack 40 ------- 1 4.0 0.0 30 57
- 3.253008 2 3 tcp 592 ------- 1 0.0 4.0 43 65
r 3.258288 2 3 tcp 592 ------- 1 0.0 4.0 36 56
+ 3.258288 3 4 tcp 592 ------- 1 0.0 4.0 36 56
- 3.258288 3 4 tcp 592 ------- 1 0.0 4.0 36 56
r 3.261707 2 0 ack 40 ------- 1 4.0 0.0 30 57
+ 3.261707 0 2 tcp 592 ------- 1 0.0 4.0 46 68
- 3.261707 0 2 tcp 592 ------- 1 0.0 4.0 46 68
+ 3.261707 0 2 tcp 592 ------- 1 0.0 4.0 47 69
+ 3.261707 0 2 tcp 592 ------- 1 0.0 4.0 48 70
- 3.264075 0 2 tcp 592 ------- 1 0.0 4.0 47 69
r 3.264187 4 3 ack 40 ------- 1 4.0 0.0 32 64
+ 3.264187 3 2 ack 40 ------- 1 4.0 0.0 32 64
- 3.264187 3 2 ack 40 ------- 1 4.0 0.0 32 64
- 3.266443 0 2 tcp 592 ------- 1 0.0 4.0 48 70
- 3.268795 2 3 tcp 592 ------- 1 0.0 4.0 44 66
r 3.274075 2 3 tcp 592 ------- 1 0.0 4.0 37 58
+ 3.274075 3 4 tcp 592 ------- 1 0.0 4.0 37 58
- 3.274075 3 4 tcp 592 ------- 1 0.0 4.0 37 58
r 3.274075 0 2 tcp 592 ------- 1 0.0 4.0 46 68
+ 3.274075 2 3 tcp 592 ------- 1 0.0 4.0 46 68
r 3.276187 3 4 tcp 592 ------- 1 0.0 4.0 34 54
+ 3.276187 4 3 ack 40 ------- 1 4.0 0.0 34 71
- 3.276187 4 3 ack 40 ------- 1 4.0 0.0 34 71
r 3.276443 0 2 tcp 592 ------- 1 0.0 4.0 47 69
+ 3.276443 2 3 tcp 592 ------- 1 0.0 4.0 47 69
r 3.278811 0 2 tcp 592 ------- 1 0.0 4.0 48 70
+ 3.278811 2 3 tcp 592 ------- 1 0.0 4.0 48 70
- 3.284581 2 3 tcp 592 ------- 1 0.0 4.0 45 67
r 3.289861 2 3 tcp 592 ------- 1 0.0 4.0 38 59
+ 3.289861 3 4 tcp 592 ------- 1 0.0 4.0 38 59
- 3.289861 3 4 tcp 592 ------- 1 0.0 4.0 38 59
r 3.291973 3 4 tcp 592 ------- 1 0.0 4.0 35 55
+ 3.3 1 2 cbr 1000 ------- 2 1.0 5.0 4 72
- 3.3 1 2 cbr 1000 ------- 2 1.0 5.0 4 72
- 3.300368 2 3 tcp 592 ------- 1 0.0 4.0 46 68
r 3.305648 2 3 tcp 592 ------- 1 0.0 4.0 39 60
+ 3.305648 3 4 tcp 592 ------- 1 0.0 4.0 39 60
- 3.305648 3 4 tcp 592 ------- 1 0.0 4.0 39 60
r 3.30776 3 4 tcp 592 ------- 1 0.0 4.0 36 56
+ 3.30776 4 3 ack 40 ------- 1 4.0 0.0 36 73
- 3.30776 4 3 ack 40 ------- 1 4.0 0.0 36 73
r 3.314 1 2 cbr 1000 ------- 2 1.0 5.0 4 72
+ 3.314 2 3 cbr 1000 ------- 2 1.0 5.0 4 72
- 3.316155 2 3 tcp 592 ------- 1 0.0 4.0 47 69
r 3.316827 4 3 ack 40 ------- 1 4.0 0.0 34 71
+ 3.316827 3 2 ack 40 ------- 1 4.0 0.0 34 71
- 3.316827 3 2 ack 40 ------- 1 4.0 0.0 34 71
r 3.321435 2 3 tcp 592 ------- 1 0.0 4.0 40 61
+ 3.321435 3 4 tcp 592 ------- 1 0.0 4.0 40 61
- 3.321435 3 4 tcp 592 ------- 1 0.0 4.0 40 61
r 3.323547 3 4 tcp 592 ------- 1 0.0 4.0 37 58
- 3.331941 2 3 tcp 592 ------- 1 0.0 4.0 48 70
r 3.337221 2 3 tcp 592 ------- 1 0.0 4.0 41 62
+ 3.337221 3 4 tcp 592 ------- 1 0.0 4.0 41 62
- 3.337221 3 4 tcp 592 ------- 1 0.0 4.0 41 62
r 3.339333 3 4 tcp 592 ------- 1 0.0 4.0 38 59
+ 3.339333 4 3 ack 40 ------- 1 4.0 0.0 38 74
- 3.339333 4 3 ack 40 ------- 1 4.0 0.0 38 74
- 3.347728 2 3 cbr 1000 ------- 2 1.0 5.0 4 72
r 3.3484 4 3 ack 40 ------- 1 4.0 0.0 36 73
+ 3.3484 3 2 ack 40 ------- 1 4.0 0.0 36 73
- 3.3484 3 2 ack 40 ------- 1 4.0 0.0 36 73
r 3.353008 2 3 tcp 592 ------- 1 0.0 4.0 42 63
+ 3.353008 3 4 tcp 592 ------- 1 0.0 4.0 42 63
- 3.353008 3 4 tcp 592 ------- 1 0.0 4.0 42 63
r 3.35512 3 4 tcp 592 ------- 1 0.0 4.0 39 60
r 3.365253 3 2 ack 40 ------- 1 4.0 0.0 32 64
+ 3.365253 2 0 ack 40 ------- 1 4.0 0.0 32 64
- 3.365253 2 0 ack 40 ------- 1 4.0 0.0 32 64
r 3.368795 2 3 tcp 592 ------- 1 0.0 4.0 43 65
+ 3.368795 3 4 tcp 592 ------- 1 0.0 4.0 43 65
- 3.368795 3 4 tcp 592 ------- 1 0.0 4.0 43 65
r 3.370907 3 4 tcp 592 ------- 1 0.0 4.0 40 61
+ 3.370907 4 3 ack 40 ------- 1 4.0 0.0 40 75
- 3.370907 4 3 ack 40 ------- 1 4.0 0.0 40 75
r 3.375413 2 0 ack 40 ------- 1 4.0 0.0 32 64
+ 3.375413 0 2 tcp 592 ------- 1 0.0 4.0 49 76
- 3.375413 0 2 tcp 592 ------- 1 0.0 4.0 49 76
+ 3.375413 0 2 tcp 592 ------- 1 0.0 4.0 50 77
+ 3.375413 0 2 tcp 592 ------- 1 0.0 4.0 51 78
- 3.377781 0 2 tcp 592 ------- 1 0.0 4.0 50 77
r 3.379973 4 3 ack 40 ------- 1 4.0 0.0 38 74
+ 3.379973 3 2 ack 40 ------- 1 4.0 0.0 38 74
- 3.379973 3 2 ack 40 ------- 1 4.0 0.0 38 74
- 3.380149 0 2 tcp 592 ------- 1 0.0 4.0 51 78
r 3.384581 2 3 tcp 592 ------- 1 0.0 4.0 44 66
+ 3.384581 3 4 tcp 592 ------- 1 0.0 4.0 44 66
- 3.384581 3 4 tcp 592 ------- 1 0.0 4.0 44 66
r 3.386693 3 4 tcp 592 ------- 1 0.0 4.0 41 62
r 3.387781 0 2 tcp 592 ------- 1 0.0 4.0 49 76
+ 3.387781 2 3 tcp 592 ------- 1 0.0 4.0 49 76
- 3.387781 2 3 tcp 592 ------- 1 0.0 4.0 49 76