0.00000  0  0  2  0  cwnd_ 1.000 
0.00000  0  0  2  0  cwnd_ 1.000 
V -t * -v 1.0a5 -a 0
A -t * -n 1 -p 0 -o 0x7fffffff -c 30 -a 1
A -t * -h 1 -m 1073741823 -s 0
c -t * -i 1 -n blue
c -t * -i 2 -n yellow
c -t * -i 3 -n red
n -t * -a 0 -s 0 -S UP -v circle -c black -i black
n -t * -a 1 -s 1 -S UP -v square -c black -i black
n -t * -a 2 -s 2 -S UP -v hexagon -c black -i black
n -t * -a 3 -s 3 -S UP -v hexagon -c black -i black
l -t * -s 0 -d 1 -S UP -r 2000000 -D 0.10000000000000001 -c black -o right
l -t * -s 1 -d 2 -S UP -r 100000 -D 0.10000000000000001 -c black -o up-right
l -t * -s 1 -d 3 -S UP -r 200000 -D 0.10000000000000001 -c black -o down-right
a -t 0 -s 0 -d 3 -n tcp
n -t 0 -s 0 -S DLABEL -l "Client1" -L ""
n -t 0 -s 1 -S DLABEL -l "Router1" -L ""
n -t 0 -s 2 -S DLABEL -l "Endserver1" -L ""
n -t 0 -s 3 -S DLABEL -l "Endserver2" -L ""
+ -t 0.5 -s 0 -d 1 -p tcp -e 40 -c 1 -i 0 -a 1 -x {0.0 2.0 0 ------- null}
- -t 0.5 -s 0 -d 1 -p tcp -e 40 -c 1 -i 0 -a 1 -x {0.0 2.0 0 ------- null}
h -t 0.5 -s 0 -d 1 -p tcp -e 40 -c 1 -i 0 -a 1 -x {0.0 2.0 -1 ------- null}
+ -t 0.5 -s 0 -d 1 -p tcp -e 40 -c 2 -i 1 -a 2 -x {0.1 3.0 0 ------- null}
- -t 0.50016 -s 0 -d 1 -p tcp -e 40 -c 2 -i 1 -a 2 -x {0.1 3.0 0 ------- null}
h -t 0.50016 -s 0 -d 1 -p tcp -e 40 -c 2 -i 1 -a 2 -x {0.1 3.0 -1 ------- null}
r -t 0.60016 -s 0 -d 1 -p tcp -e 40 -c 1 -i 0 -a 1 -x {0.0 2.0 0 ------- null}
+ -t 0.60016 -s 1 -d 2 -p tcp -e 40 -c 1 -i 0 -a 1 -x {0.0 2.0 0 ------- null}
- -t 0.60016 -s 1 -d 2 -p tcp -e 40 -c 1 -i 0 -a 1 -x {0.0 2.0 0 ------- null}
h -t 0.60016 -s 1 -d 2 -p tcp -e 40 -c 1 -i 0 -a 1 -x {0.0 2.0 -1 ------- null}
r -t 0.60032 -s 0 -d 1 -p tcp -e 40 -c 2 -i 1 -a 2 -x {0.1 3.0 0 ------- null}
+ -t 0.60032 -s 1 -d 3 -p tcp -e 40 -c 2 -i 1 -a 2 -x {0.1 3.0 0 ------- null}
- -t 0.60032 -s 1 -d 3 -p tcp -e 40 -c 2 -i 1 -a 2 -x {0.1 3.0 0 ------- null}
h -t 0.60032 -s 1 -d 3 -p tcp -e 40 -c 2 -i 1 -a 2 -x {0.1 3.0 -1 ------- null}
r -t 0.70192 -s 1 -d 3 -p tcp -e 40 -c 2 -i 1 -a 2 -x {0.1 3.0 0 ------- null}
+ -t 0.70192 -s 3 -d 1 -p ack -e 40 -c 2 -i 2 -a 2 -x {3.0 0.1 0 ------- null}
- -t 0.70192 -s 3 -d 1 -p ack -e 40 -c 2 -i 2 -a 2 -x {3.0 0.1 0 ------- null}
h -t 0.70192 -s 3 -d 1 -p ack -e 40 -c 2 -i 2 -a 2 -x {3.0 0.1 -1 ------- null}
r -t 0.70336 -s 1 -d 2 -p tcp -e 40 -c 1 -i 0 -a 1 -x {0.0 2.0 0 ------- null}
+ -t 0.70336 -s 2 -d 1 -p ack -e 40 -c 1 -i 3 -a 1 -x {2.0 0.0 0 ------- null}
- -t 0.70336 -s 2 -d 1 -p ack -e 40 -c 1 -i 3 -a 1 -x {2.0 0.0 0 ------- null}
h -t 0.70336 -s 2 -d 1 -p ack -e 40 -c 1 -i 3 -a 1 -x {2.0 0.0 -1 ------- null}
r -t 0.80352 -s 3 -d 1 -p ack -e 40 -c 2 -i 2 -a 2 -x {3.0 0.1 0 ------- null}
+ -t 0.80352 -s 1 -d 0 -p ack -e 40 -c 2 -i 2 -a 2 -x {3.0 0.1 0 ------- null}
- -t 0.80352 -s 1 -d 0 -p ack -e 40 -c 2 -i 2 -a 2 -x {3.0 0.1 0 ------- null}
h -t 0.80352 -s 1 -d 0 -p ack -e 40 -c 2 -i 2 -a 2 -x {3.0 0.1 -1 ------- null}
r -t 0.80656 -s 2 -d 1 -p ack -e 40 -c 1 -i 3 -a 1 -x {2.0 0.0 0 ------- null}
+ -t 0.80656 -s 1 -d 0 -p ack -e 40 -c 1 -i 3 -a 1 -x {2.0 0.0 0 ------- null}
- -t 0.80656 -s 1 -d 0 -p ack -e 40 -c 1 -i 3 -a 1 -x {2.0 0.0 0 ------- null}
h -t 0.80656 -s 1 -d 0 -p ack -e 40 -c 1 -i 3 -a 1 -x {2.0 0.0 -1 ------- null}
r -t 0.90368 -s 1 -d 0 -p ack -e 40 -c 2 -i 2 -a 2 -x {3.0 0.1 0 ------- null}
+ -t 0.90368 -s 0 -d 1 -p tcp -e 1040 -c 2 -i 4 -a 2 -x {0.1 3.0 1 ------- null}
- -t 0.90368 -s 0 -d 1 -p tcp -e 1040 -c 2 -i 4 -a 2 -x {0.1 3.0 1 ------- null}
h -t 0.90368 -s 0 -d 1 -p tcp -e 1040 -c 2 -i 4 -a 2 -x {0.1 3.0 -1 ------- null}
+ -t 0.90368 -s 0 -d 1 -p tcp -e 1040 -c 2 -i 5 -a 2 -x {0.1 3.0 2 ------- null}
r -t 0.90672 -s 1 -d 0 -p ack -e 40 -c 1 -i 3 -a 1 -x {2.0 0.0 0 ------- null}
0.90672  0  0  2  0  cwnd_ 2.000 
+ -t 0.90672 -s 0 -d 1 -p tcp -e 1040 -c 1 -i 6 -a 1 -x {0.0 2.0 1 ------- null}
+ -t 0.90672 -s 0 -d 1 -p tcp -e 1040 -c 1 -i 7 -a 1 -x {0.0 2.0 2 ------- null}
- -t 0.90784 -s 0 -d 1 -p tcp -e 1040 -c 2 -i 5 -a 2 -x {0.1 3.0 2 ------- null}
h -t 0.90784 -s 0 -d 1 -p tcp -e 1040 -c 2 -i 5 -a 2 -x {0.1 3.0 -1 ------- null}
- -t 0.912 -s 0 -d 1 -p tcp -e 1040 -c 1 -i 6 -a 1 -x {0.0 2.0 1 ------- null}
h -t 0.912 -s 0 -d 1 -p tcp -e 1040 -c 1 -i 6 -a 1 -x {0.0 2.0 -1 ------- null}
- -t 0.91616 -s 0 -d 1 -p tcp -e 1040 -c 1 -i 7 -a 1 -x {0.0 2.0 2 ------- null}
h -t 0.91616 -s 0 -d 1 -p tcp -e 1040 -c 1 -i 7 -a 1 -x {0.0 2.0 -1 ------- null}
r -t 1.00784 -s 0 -d 1 -p tcp -e 1040 -c 2 -i 4 -a 2 -x {0.1 3.0 1 ------- null}
+ -t 1.00784 -s 1 -d 3 -p tcp -e 1040 -c 2 -i 4 -a 2 -x {0.1 3.0 1 ------- null}
- -t 1.00784 -s 1 -d 3 -p tcp -e 1040 -c 2 -i 4 -a 2 -x {0.1 3.0 1 ------- null}
h -t 1.00784 -s 1 -d 3 -p tcp -e 1040 -c 2 -i 4 -a 2 -x {0.1 3.0 -1 ------- null}
r -t 1.012 -s 0 -d 1 -p tcp -e 1040 -c 2 -i 5 -a 2 -x {0.1 3.0 2 ------- null}
+ -t 1.012 -s 1 -d 3 -p tcp -e 1040 -c 2 -i 5 -a 2 -x {0.1 3.0 2 ------- null}
r -t 1.01616 -s 0 -d 1 -p tcp -e 1040 -c 1 -i 6 -a 1 -x {0.0 2.0 1 ------- null}
+ -t 1.01616 -s 1 -d 2 -p tcp -e 1040 -c 1 -i 6 -a 1 -x {0.0 2.0 1 ------- null}
- -t 1.01616 -s 1 -d 2 -p tcp -e 1040 -c 1 -i 6 -a 1 -x {0.0 2.0 1 ------- null}
h -t 1.01616 -s 1 -d 2 -p tcp -e 1040 -c 1 -i 6 -a 1 -x {0.0 2.0 -1 ------- null}
r -t 1.02032 -s 0 -d 1 -p tcp -e 1040 -c 1 -i 7 -a 1 -x {0.0 2.0 2 ------- null}
+ -t 1.02032 -s 1 -d 2 -p tcp -e 1040 -c 1 -i 7 -a 1 -x {0.0 2.0 2 ------- null}
- -t 1.04944 -s 1 -d 3 -p tcp -e 1040 -c 2 -i 5 -a 2 -x {0.1 3.0 2 ------- null}
h -t 1.04944 -s 1 -d 3 -p tcp -e 1040 -c 2 -i 5 -a 2 -x {0.1 3.0 -1 ------- null}
- -t 1.09936 -s 1 -d 2 -p tcp -e 1040 -c 1 -i 7 -a 1 -x {0.0 2.0 2 ------- null}
h -t 1.09936 -s 1 -d 2 -p tcp -e 1040 -c 1 -i 7 -a 1 -x {0.0 2.0 -1 ------- null}
r -t 1.14944 -s 1 -d 3 -p tcp -e 1040 -c 2 -i 4 -a 2 -x {0.1 3.0 1 ------- null}
+ -t 1.14944 -s 3 -d 1 -p ack -e 40 -c 2 -i 8 -a 2 -x {3.0 0.1 1 ------- null}
- -t 1.14944 -s 3 -d 1 -p ack -e 40 -c 2 -i 8 -a 2 -x {3.0 0.1 1 ------- null}
h -t 1.14944 -s 3 -d 1 -p ack -e 40 -c 2 -i 8 -a 2 -x {3.0 0.1 -1 ------- null}
r -t 1.19104 -s 1 -d 3 -p tcp -e 1040 -c 2 -i 5 -a 2 -x {0.1 3.0 2 ------- null}
+ -t 1.19104 -s 3 -d 1 -p ack -e 40 -c 2 -i 9 -a 2 -x {3.0 0.1 2 ------- null}
- -t 1.19104 -s 3 -d 1 -p ack -e 40 -c 2 -i 9 -a 2 -x {3.0 0.1 2 ------- null}
h -t 1.19104 -s 3 -d 1 -p ack -e 40 -c 2 -i 9 -a 2 -x {3.0 0.1 -1 ------- null}
r -t 1.19936 -s 1 -d 2 -p tcp -e 1040 -c 1 -i 6 -a 1 -x {0.0 2.0 1 ------- null}
+ -t 1.19936 -s 2 -d 1 -p ack -e 40 -c 1 -i 10 -a 1 -x {2.0 0.0 1 ------- null}
- -t 1.19936 -s 2 -d 1 -p ack -e 40 -c 1 -i 10 -a 1 -x {2.0 0.0 1 ------- null}
h -t 1.19936 -s 2 -d 1 -p ack -e 40 -c 1 -i 10 -a 1 -x {2.0 0.0 -1 ------- null}
r -t 1.25104 -s 3 -d 1 -p ack -e 40 -c 2 -i 8 -a 2 -x {3.0 0.1 1 ------- null}
+ -t 1.25104 -s 1 -d 0 -p ack -e 40 -c 2 -i 8 -a 2 -x {3.0 0.1 1 ------- null}
- -t 1.25104 -s 1 -d 0 -p ack -e 40 -c 2 -i 8 -a 2 -x {3.0 0.1 1 ------- null}
h -t 1.25104 -s 1 -d 0 -p ack -e 40 -c 2 -i 8 -a 2 -x {3.0 0.1 -1 ------- null}
r -t 1.28256 -s 1 -d 2 -p tcp -e 1040 -c 1 -i 7 -a 1 -x {0.0 2.0 2 ------- null}
+ -t 1.28256 -s 2 -d 1 -p ack -e 40 -c 1 -i 11 -a 1 -x {2.0 0.0 2 ------- null}
- -t 1.28256 -s 2 -d 1 -p ack -e 40 -c 1 -i 11 -a 1 -x {2.0 0.0 2 ------- null}
h -t 1.28256 -s 2 -d 1 -p ack -e 40 -c 1 -i 11 -a 1 -x {2.0 0.0 -1 ------- null}
r -t 1.29264 -s 3 -d 1 -p ack -e 40 -c 2 -i 9 -a 2 -x {3.0 0.1 2 ------- null}
+ -t 1.29264 -s 1 -d 0 -p ack -e 40 -c 2 -i 9 -a 2 -x {3.0 0.1 2 ------- null}
- -t 1.29264 -s 1 -d 0 -p ack -e 40 -c 2 -i 9 -a 2 -x {3.0 0.1 2 ------- null}
h -t 1.29264 -s 1 -d 0 -p ack -e 40 -c 2 -i 9 -a 2 -x {3.0 0.1 -1 ------- null}
r -t 1.30256 -s 2 -d 1 -p ack -e 40 -c 1 -i 10 -a 1 -x {2.0 0.0 1 ------- null}
+ -t 1.30256 -s 1 -d 0 -p ack -e 40 -c 1 -i 10 -a 1 -x {2.0 0.0 1 ------- null}
- -t 1.30256 -s 1 -d 0 -p ack -e 40 -c 1 -i 10 -a 1 -x {2.0 0.0 1 ------- null}
h -t 1.30256 -s 1 -d 0 -p ack -e 40 -c 1 -i 10 -a 1 -x {2.0 0.0 -1 ------- null}
r -t 1.3512 -s 1 -d 0 -p ack -e 40 -c 2 -i 8 -a 2 -x {3.0 0.1 1 ------- null}
+ -t 1.3512 -s 0 -d 1 -p tcp -e 1040 -c 2 -i 12 -a 2 -x {0.1 3.0 3 ------- null}
- -t 1.3512 -s 0 -d 1 -p tcp -e 1040 -c 2 -i 12 -a 2 -x {0.1 3.0 3 ------- null}
h -t 1.3512 -s 0 -d 1 -p tcp -e 1040 -c 2 -i 12 -a 2 -x {0.1 3.0 -1 ------- null}
+ -t 1.3512 -s 0 -d 1 -p tcp -e 1040 -c 2 -i 13 -a 2 -x {0.1 3.0 4 ------- null}
- -t 1.35536 -s 0 -d 1 -p tcp -e 1040 -c 2 -i 13 -a 2 -x {0.1 3.0 4 ------- null}
h -t 1.35536 -s 0 -d 1 -p tcp -e 1040 -c 2 -i 13 -a 2 -x {0.1 3.0 -1 ------- null}
r -t 1.38576 -s 2 -d 1 -p ack -e 40 -c 1 -i 11 -a 1 -x {2.0 0.0 2 ------- null}
+ -t 1.38576 -s 1 -d 0 -p ack -e 40 -c 1 -i 11 -a 1 -x {2.0 0.0 2 ------- null}
- -t 1.38576 -s 1 -d 0 -p ack -e 40 -c 1 -i 11 -a 1 -x {2.0 0.0 2 ------- null}
h -t 1.38576 -s 1 -d 0 -p ack -e 40 -c 1 -i 11 -a 1 -x {2.0 0.0 -1 ------- null}
r -t 1.3928 -s 1 -d 0 -p ack -e 40 -c 2 -i 9 -a 2 -x {3.0 0.1 2 ------- null}
+ -t 1.3928 -s 0 -d 1 -p tcp -e 1040 -c 2 -i 14 -a 2 -x {0.1 3.0 5 ------- null}
- -t 1.3928 -s 0 -d 1 -p tcp -e 1040 -c 2 -i 14 -a 2 -x {0.1 3.0 5 ------- null}
h -t 1.3928 -s 0 -d 1 -p tcp -e 1040 -c 2 -i 14 -a 2 -x {0.1 3.0 -1 ------- null}
+ -t 1.3928 -s 0 -d 1 -p tcp -e 1040 -c 2 -i 15 -a 2 -x {0.1 3.0 6 ------- null}
- -t 1.39696 -s 0 -d 1 -p tcp -e 1040 -c 2 -i 15 -a 2 -x {0.1 3.0 6 ------- null}
h -t 1.39696 -s 0 -d 1 -p tcp -e 1040 -c 2 -i 15 -a 2 -x {0.1 3.0 -1 ------- null}
r -t 1.40272 -s 1 -d 0 -p ack -e 40 -c 1 -i 10 -a 1 -x {2.0 0.0 1 ------- null}
1.40272  0  0  2  0  cwnd_ 3.000 
+ -t 1.40272 -s 0 -d 1 -p tcp -e 1040 -c 1 -i 16 -a 1 -x {0.0 2.0 3 ------- null}
- -t 1.40272 -s 0 -d 1 -p tcp -e 1040 -c 1 -i 16 -a 1 -x {0.0 2.0 3 ------- null}
h -t 1.40272 -s 0 -d 1 -p tcp -e 1040 -c 1 -i 16 -a 1 -x {0.0 2.0 -1 ------- null}
+ -t 1.40272 -s 0 -d 1 -p tcp -e 1040 -c 1 -i 17 -a 1 -x {0.0 2.0 4 ------- null}
- -t 1.40688 -s 0 -d 1 -p tcp -e 1040 -c 1 -i 17 -a 1 -x {0.0 2.0 4 ------- null}
h -t 1.40688 -s 0 -d 1 -p tcp -e 1040 -c 1 -i 17 -a 1 -x {0.0 2.0 -1 ------- null}
r -t 1.45536 -s 0 -d 1 -p tcp -e 1040 -c 2 -i 12 -a 2 -x {0.1 3.0 3 ------- null}
+ -t 1.45536 -s 1 -d 3 -p tcp -e 1040 -c 2 -i 12 -a 2 -x {0.1 3.0 3 ------- null}
- -t 1.45536 -s 1 -d 3 -p tcp -e 1040 -c 2 -i 12 -a 2 -x {0.1 3.0 3 ------- null}
h -t 1.45536 -s 1 -d 3 -p tcp -e 1040 -c 2 -i 12 -a 2 -x {0.1 3.0 -1 ------- null}
r -t 1.45952 -s 0 -d 1 -p tcp -e 1040 -c 2 -i 13 -a 2 -x {0.1 3.0 4 ------- null}
+ -t 1.45952 -s 1 -d 3 -p tcp -e 1040 -c 2 -i 13 -a 2 -x {0.1 3.0 4 ------- null}
r -t 1.48592 -s 1 -d 0 -p ack -e 40 -c 1 -i 11 -a 1 -x {2.0 0.0 2 ------- null}
1.48592  0  0  2  0  cwnd_ 4.000 
+ -t 1.48592 -s 0 -d 1 -p tcp -e 1040 -c 1 -i 18 -a 1 -x {0.0 2.0 5 ------- null}
- -t 1.48592 -s 0 -d 1 -p tcp -e 1040 -c 1 -i 18 -a 1 -x {0.0 2.0 5 ------- null}
h -t 1.48592 -s 0 -d 1 -p tcp -e 1040 -c 1 -i 18 -a 1 -x {0.0 2.0 -1 ------- null}
+ -t 1.48592 -s 0 -d 1 -p tcp -e 1040 -c 1 -i 19 -a 1 -x {0.0 2.0 6 ------- null}
- -t 1.49008 -s 0 -d 1 -p tcp -e 1040 -c 1 -i 19 -a 1 -x {0.0 2.0 6 ------- null}
h -t 1.49008 -s 0 -d 1 -p tcp -e 1040 -c 1 -i 19 -a 1 -x {0.0 2.0 -1 ------- null}
r -t 1.49696 -s 0 -d 1 -p tcp -e 1040 -c 2 -i 14 -a 2 -x {0.1 3.0 5 ------- null}
+ -t 1.49696 -s 1 -d 3 -p tcp -e 1040 -c 2 -i 14 -a 2 -x {0.1 3.0 5 ------- null}
- -t 1.49696 -s 1 -d 3 -p tcp -e 1040 -c 2 -i 13 -a 2 -x {0.1 3.0 4 ------- null}
h -t 1.49696 -s 1 -d 3 -p tcp -e 1040 -c 2 -i 13 -a 2 -x {0.1 3.0 -1 ------- null}
r -t 1.50112 -s 0 -d 1 -p tcp -e 1040 -c 2 -i 15 -a 2 -x {0.1 3.0 6 ------- null}
+ -t 1.50112 -s 1 -d 3 -p tcp -e 1040 -c 2 -i 15 -a 2 -x {0.1 3.0 6 ------- null}
r -t 1.50688 -s 0 -d 1 -p tcp -e 1040 -c 1 -i 16 -a 1 -x {0.0 2.0 3 ------- null}
+ -t 1.50688 -s 1 -d 2 -p tcp -e 1040 -c 1 -i 16 -a 1 -x {0.0 2.0 3 ------- null}
- -t 1.50688 -s 1 -d 2 -p tcp -e 1040 -c 1 -i 16 -a 1 -x {0.0 2.0 3 ------- null}
h -t 1.50688 -s 1 -d 2 -p tcp -e 1040 -c 1 -i 16 -a 1 -x {0.0 2.0 -1 ------- null}
r -t 1.51104 -s 0 -d 1 -p tcp -e 1040 -c 1 -i 17 -a 1 -x {0.0 2.0 4 ------- null}
+ -t 1.51104 -s 1 -d 2 -p tcp -e 1040 -c 1 -i 17 -a 1 -x {0.0 2.0 4 ------- null}
- -t 1.53856 -s 1 -d 3 -p tcp -e 1040 -c 2 -i 14 -a 2 -x {0.1 3.0 5 ------- null}
h -t 1.53856 -s 1 -d 3 -p tcp -e 1040 -c 2 -i 14 -a 2 -x {0.1 3.0 -1 ------- null}
- -t 1.58016 -s 1 -d 3 -p tcp -e 1040 -c 2 -i 15 -a 2 -x {0.1 3.0 6 ------- null}
h -t 1.58016 -s 1 -d 3 -p tcp -e 1040 -c 2 -i 15 -a 2 -x {0.1 3.0 -1 ------- null}
r -t 1.59008 -s 0 -d 1 -p tcp -e 1040 -c 1 -i 18 -a 1 -x {0.0 2.0 5 ------- null}
+ -t 1.59008 -s 1 -d 2 -p tcp -e 1040 -c 1 -i 18 -a 1 -x {0.0 2.0 5 ------- null}
- -t 1.59008 -s 1 -d 2 -p tcp -e 1040 -c 1 -i 17 -a 1 -x {0.0 2.0 4 ------- null}
h -t 1.59008 -s 1 -d 2 -p tcp -e 1040 -c 1 -i 17 -a 1 -x {0.0 2.0 -1 ------- null}
r -t 1.59424 -s 0 -d 1 -p tcp -e 1040 -c 1 -i 19 -a 1 -x {0.0 2.0 6 ------- null}
+ -t 1.59424 -s 1 -d 2 -p tcp -e 1040 -c 1 -i 19 -a 1 -x {0.0 2.0 6 ------- null}
r -t 1.59696 -s 1 -d 3 -p tcp -e 1040 -c 2 -i 12 -a 2 -x {0.1 3.0 3 ------- null}
+ -t 1.59696 -s 3 -d 1 -p ack -e 40 -c 2 -i 20 -a 2 -x {3.0 0.1 3 ------- null}
- -t 1.59696 -s 3 -d 1 -p ack -e 40 -c 2 -i 20 -a 2 -x {3.0 0.1 3 ------- null}
h -t 1.59696 -s 3 -d 1 -p ack -e 40 -c 2 -i 20 -a 2 -x {3.0 0.1 -1 ------- null}
r -t 1.63856 -s 1 -d 3 -p tcp -e 1040 -c 2 -i 13 -a 2 -x {0.1 3.0 4 ------- null}
+ -t 1.63856 -s 3 -d 1 -p ack -e 40 -c 2 -i 21 -a 2 -x {3.0 0.1 4 ------- null}
- -t 1.63856 -s 3 -d 1 -p ack -e 40 -c 2 -i 21 -a 2 -x {3.0 0.1 4 ------- null}
h -t 1.63856 -s 3 -d 1 -p ack -e 40 -c 2 -i 21 -a 2 -x {3.0 0.1 -1 ------- null}
- -t 1.67328 -s 1 -d 2 -p tcp -e 1040 -c 1 -i 18 -a 1 -x {0.0 2.0 5 ------- null}
h -t 1.67328 -s 1 -d 2 -p tcp -e 1040 -c 1 -i 18 -a 1 -x {0.0 2.0 -1 ------- null}
r -t 1.68016 -s 1 -d 3 -p tcp -e 1040 -c 2 -i 14 -a 2 -x {0.1 3.0 5 ------- null}
+ -t 1.68016 -s 3 -d 1 -p ack -e 40 -c 2 -i 22 -a 2 -x {3.0 0.1 5 ------- null}
- -t 1.68016 -s 3 -d 1 -p ack -e 40 -c 2 -i 22 -a 2 -x {3.0 0.1 5 ------- null}
h -t 1.68016 -s 3 -d 1 -p ack -e 40 -c 2 -i 22 -a 2 -x {3.0 0.1 -1 ------- null}
r -t 1.69008 -s 1 -d 2 -p tcp -e 1040 -c 1 -i 16 -a 1 -x {0.0 2.0 3 ------- null}
+ -t 1.69008 -s 2 -d 1 -p ack -e 40 -c 1 -i 23 -a 1 -x {2.0 0.0 3 ------- null}
- -t 1.69008 -s 2 -d 1 -p ack -e 40 -c 1 -i 23 -a 1 -x {2.0 0.0 3 ------- null}
h -t 1.69008 -s 2 -d 1 -p ack -e 40 -c 1 -i 23 -a 1 -x {2.0 0.0 -1 ------- null}
r -t 1.69856 -s 3 -d 1 -p ack -e 40 -c 2 -i 20 -a 2 -x {3.0 0.1 3 ------- null}
+ -t 1.69856 -s 1 -d 0 -p ack -e 40 -c 2 -i 20 -a 2 -x {3.0 0.1 3 ------- null}
- -t 1.69856 -s 1 -d 0 -p ack -e 40 -c 2 -i 20 -a 2 -x {3.0 0.1 3 ------- null}
h -t 1.69856 -s 1 -d 0 -p ack -e 40 -c 2 -i 20 -a 2 -x {3.0 0.1 -1 ------- null}
r -t 1.72176 -s 1 -d 3 -p tcp -e 1040 -c 2 -i 15 -a 2 -x {0.1 3.0 6 ------- null}
+ -t 1.72176 -s 3 -d 1 -p ack -e 40 -c 2 -i 24 -a 2 -x {3.0 0.1 6 ------- null}
- -t 1.72176 -s 3 -d 1 -p ack -e 40 -c 2 -i 24 -a 2 -x {3.0 0.1 6 ------- null}
h -t 1.72176 -s 3 -d 1 -p ack -e 40 -c 2 -i 24 -a 2 -x {3.0 0.1 -1 ------- null}
r -t 1.74016 -s 3 -d 1 -p ack -e 40 -c 2 -i 21 -a 2 -x {3.0 0.1 4 ------- null}
+ -t 1.74016 -s 1 -d 0 -p ack -e 40 -c 2 -i 21 -a 2 -x {3.0 0.1 4 ------- null}
- -t 1.74016 -s 1 -d 0 -p ack -e 40 -c 2 -i 21 -a 2 -x {3.0 0.1 4 ------- null}
h -t 1.74016 -s 1 -d 0 -p ack -e 40 -c 2 -i 21 -a 2 -x {3.0 0.1 -1 ------- null}
- -t 1.75648 -s 1 -d 2 -p tcp -e 1040 -c 1 -i 19 -a 1 -x {0.0 2.0 6 ------- null}
h -t 1.75648 -s 1 -d 2 -p tcp -e 1040 -c 1 -i 19 -a 1 -x {0.0 2.0 -1 ------- null}
r -t 1.77328 -s 1 -d 2 -p tcp -e 1040 -c 1 -i 17 -a 1 -x {0.0 2.0 4 ------- null}
+ -t 1.77328 -s 2 -d 1 -p ack -e 40 -c 1 -i 25 -a 1 -x {2.0 0.0 4 ------- null}
- -t 1.77328 -s 2 -d 1 -p ack -e 40 -c 1 -i 25 -a 1 -x {2.0 0.0 4 ------- null}
h -t 1.77328 -s 2 -d 1 -p ack -e 40 -c 1 -i 25 -a 1 -x {2.0 0.0 -1 ------- null}
r -t 1.78176 -s 3 -d 1 -p ack -e 40 -c 2 -i 22 -a 2 -x {3.0 0.1 5 ------- null}
+ -t 1.78176 -s 1 -d 0 -p ack -e 40 -c 2 -i 22 -a 2 -x {3.0 0.1 5 ------- null}
- -t 1.78176 -s 1 -d 0 -p ack -e 40 -c 2 -i 22 -a 2 -x {3.0 0.1 5 ------- null}
h -t 1.78176 -s 1 -d 0 -p ack -e 40 -c 2 -i 22 -a 2 -x {3.0 0.1 -1 ------- null}
r -t 1.79328 -s 2 -d 1 -p ack -e 40 -c 1 -i 23 -a 1 -x {2.0 0.0 3 ------- null}
+ -t 1.79328 -s 1 -d 0 -p ack -e 40 -c 1 -i 23 -a 1 -x {2.0 0.0 3 ------- null}
- -t 1.79328 -s 1 -d 0 -p ack -e 40 -c 1 -i 23 -a 1 -x {2.0 0.0 3 ------- null}
h -t 1.79328 -s 1 -d 0 -p ack -e 40 -c 1 -i 23 -a 1 -x {2.0 0.0 -1 ------- null}
r -t 1.79872 -s 1 -d 0 -p ack -e 40 -c 2 -i 20 -a 2 -x {3.0 0.1 3 ------- null}
+ -t 1.79872 -s 0 -d 1 -p tcp -e 1040 -c 2 -i 26 -a 2 -x {0.1 3.0 7 ------- null}
- -t 1.79872 -s 0 -d 1 -p tcp -e 1040 -c 2 -i 26 -a 2 -x {0.1 3.0 7 ------- null}
h -t 1.79872 -s 0 -d 1 -p tcp -e 1040 -c 2 -i 26 -a 2 -x {0.1 3.0 -1 ------- null}
+ -t 1.79872 -s 0 -d 1 -p tcp -e 1040 -c 2 -i 27 -a 2 -x {0.1 3.0 8 ------- null}
- -t 1.80288 -s 0 -d 1 -p tcp -e 1040 -c 2 -i 27 -a 2 -x {0.1 3.0 8 ------- null}
h -t 1.80288 -s 0 -d 1 -p tcp -e 1040 -c 2 -i 27 -a 2 -x {0.1 3.0 -1 ------- null}
r -t 1.82336 -s 3 -d 1 -p ack -e 40 -c 2 -i 24 -a 2 -x {3.0 0.1 6 ------- null}
+ -t 1.82336 -s 1 -d 0 -p ack -e 40 -c 2 -i 24 -a 2 -x {3.0 0.1 6 ------- null}
- -t 1.82336 -s 1 -d 0 -p ack -e 40 -c 2 -i 24 -a 2 -x {3.0 0.1 6 ------- null}
h -t 1.82336 -s 1 -d 0 -p ack -e 40 -c 2 -i 24 -a 2 -x {3.0 0.1 -1 ------- null}
r -t 1.84032 -s 1 -d 0 -p ack -e 40 -c 2 -i 21 -a 2 -x {3.0 0.1 4 ------- null}
+ -t 1.84032 -s 0 -d 1 -p tcp -e 1040 -c 2 -i 28 -a 2 -x {0.1 3.0 9 ------- null}
- -t 1.84032 -s 0 -d 1 -p tcp -e 1040 -c 2 -i 28 -a 2 -x {0.1 3.0 9 ------- null}
h -t 1.84032 -s 0 -d 1 -p tcp -e 1040 -c 2 -i 28 -a 2 -x {0.1 3.0 -1 ------- null}
+ -t 1.84032 -s 0 -d 1 -p tcp -e 1040 -c 2 -i 29 -a 2 -x {0.1 3.0 10 ------- null}
- -t 1.84448 -s 0 -d 1 -p tcp -e 1040 -c 2 -i 29 -a 2 -x {0.1 3.0 10 ------- null}
h -t 1.84448 -s 0 -d 1 -p tcp -e 1040 -c 2 -i 29 -a 2 -x {0.1 3.0 -1 ------- null}
r -t 1.85648 -s 1 -d 2 -p tcp -e 1040 -c 1 -i 18 -a 1 -x {0.0 2.0 5 ------- null}
+ -t 1.85648 -s 2 -d 1 -p ack -e 40 -c 1 -i 30 -a 1 -x {2.0 0.0 5 ------- null}
- -t 1.85648 -s 2 -d 1 -p ack -e 40 -c 1 -i 30 -a 1 -x {2.0 0.0 5 ------- null}
h -t 1.85648 -s 2 -d 1 -p ack -e 40 -c 1 -i 30 -a 1 -x {2.0 0.0 -1 ------- null}
r -t 1.87648 -s 2 -d 1 -p ack -e 40 -c 1 -i 25 -a 1 -x {2.0 0.0 4 ------- null}
+ -t 1.87648 -s 1 -d 0 -p ack -e 40 -c 1 -i 25 -a 1 -x {2.0 0.0 4 ------- null}
- -t 1.87648 -s 1 -d 0 -p ack -e 40 -c 1 -i 25 -a 1 -x {2.0 0.0 4 ------- null}
h -t 1.87648 -s 1 -d 0 -p ack -e 40 -c 1 -i 25 -a 1 -x {2.0 0.0 -1 ------- null}
r -t 1.88192 -s 1 -d 0 -p ack -e 40 -c 2 -i 22 -a 2 -x {3.0 0.1 5 ------- null}
+ -t 1.88192 -s 0 -d 1 -p tcp -e 1040 -c 2 -i 31 -a 2 -x {0.1 3.0 11 ------- null}
- -t 1.88192 -s 0 -d 1 -p tcp -e 1040 -c 2 -i 31 -a 2 -x {0.1 3.0 11 ------- null}
h -t 1.88192 -s 0 -d 1 -p tcp -e 1040 -c 2 -i 31 -a 2 -x {0.1 3.0 -1 ------- null}
+ -t 1.88192 -s 0 -d 1 -p tcp -e 1040 -c 2 -i 32 -a 2 -x {0.1 3.0 12 ------- null}
- -t 1.88608 -s 0 -d 1 -p tcp -e 1040 -c 2 -i 32 -a 2 -x {0.1 3.0 12 ------- null}
h -t 1.88608 -s 0 -d 1 -p tcp -e 1040 -c 2 -i 32 -a 2 -x {0.1 3.0 -1 ------- null}
r -t 1.89344 -s 1 -d 0 -p ack -e 40 -c 1 -i 23 -a 1 -x {2.0 0.0 3 ------- null}
1.89344  0  0  2  0  cwnd_ 5.000 
+ -t 1.89344 -s 0 -d 1 -p tcp -e 1040 -c 1 -i 33 -a 1 -x {0.0 2.0 7 ------- null}
- -t 1.89344 -s 0 -d 1 -p tcp -e 1040 -c 1 -i 33 -a 1 -x {0.0 2.0 7 ------- null}
h -t 1.89344 -s 0 -d 1 -p tcp -e 1040 -c 1 -i 33 -a 1 -x {0.0 2.0 -1 ------- null}
+ -t 1.89344 -s 0 -d 1 -p tcp -e 1040 -c 1 -i 34 -a 1 -x {0.0 2.0 8 ------- null}
- -t 1.8976 -s 0 -d 1 -p tcp -e 1040 -c 1 -i 34 -a 1 -x {0.0 2.0 8 ------- null}
h -t 1.8976 -s 0 -d 1 -p tcp -e 1040 -c 1 -i 34 -a 1 -x {0.0 2.0 -1 ------- null}
r -t 1.90288 -s 0 -d 1 -p tcp -e 1040 -c 2 -i 26 -a 2 -x {0.1 3.0 7 ------- null}
+ -t 1.90288 -s 1 -d 3 -p tcp -e 1040 -c 2 -i 26 -a 2 -x {0.1 3.0 7 ------- null}
- -t 1.90288 -s 1 -d 3 -p tcp -e 1040 -c 2 -i 26 -a 2 -x {0.1 3.0 7 ------- null}
h -t 1.90288 -s 1 -d 3 -p tcp -e 1040 -c 2 -i 26 -a 2 -x {0.1 3.0 -1 ------- null}
r -t 1.90704 -s 0 -d 1 -p tcp -e 1040 -c 2 -i 27 -a 2 -x {0.1 3.0 8 ------- null}
+ -t 1.90704 -s 1 -d 3 -p tcp -e 1040 -c 2 -i 27 -a 2 -x {0.1 3.0 8 ------- null}
r -t 1.92352 -s 1 -d 0 -p ack -e 40 -c 2 -i 24 -a 2 -x {3.0 0.1 6 ------- null}
+ -t 1.92352 -s 0 -d 1 -p tcp -e 1040 -c 2 -i 35 -a 2 -x {0.1 3.0 13 ------- null}
- -t 1.92352 -s 0 -d 1 -p tcp -e 1040 -c 2 -i 35 -a 2 -x {0.1 3.0 13 ------- null}
h -t 1.92352 -s 0 -d 1 -p tcp -e 1040 -c 2 -i 35 -a 2 -x {0.1 3.0 -1 ------- null}
+ -t 1.92352 -s 0 -d 1 -p tcp -e 1040 -c 2 -i 36 -a 2 -x {0.1 3.0 14 ------- null}
- -t 1.92768 -s 0 -d 1 -p tcp -e 1040 -c 2 -i 36 -a 2 -x {0.1 3.0 14 ------- null}
h -t 1.92768 -s 0 -d 1 -p tcp -e 1040 -c 2 -i 36 -a 2 -x {0.1 3.0 -1 ------- null}
r -t 1.93968 -s 1 -d 2 -p tcp -e 1040 -c 1 -i 19 -a 1 -x {0.0 2.0 6 ------- null}
+ -t 1.93968 -s 2 -d 1 -p ack -e 40 -c 1 -i 37 -a 1 -x {2.0 0.0 6 ------- null}
- -t 1.93968 -s 2 -d 1 -p ack -e 40 -c 1 -i 37 -a 1 -x {2.0 0.0 6 ------- null}
h -t 1.93968 -s 2 -d 1 -p ack -e 40 -c 1 -i 37 -a 1 -x {2.0 0.0 -1 ------- null}
r -t 1.94448 -s 0 -d 1 -p tcp -e 1040 -c 2 -i 28 -a 2 -x {0.1 3.0 9 ------- null}
+ -t 1.94448 -s 1 -d 3 -p tcp -e 1040 -c 2 -i 28 -a 2 -x {0.1 3.0 9 ------- null}
- -t 1.94448 -s 1 -d 3 -p tcp -e 1040 -c 2 -i 27 -a 2 -x {0.1 3.0 8 ------- null}
h -t 1.94448 -s 1 -d 3 -p tcp -e 1040 -c 2 -i 27 -a 2 -x {0.1 3.0 -1 ------- null}
r -t 1.94864 -s 0 -d 1 -p tcp -e 1040 -c 2 -i 29 -a 2 -x {0.1 3.0 10 ------- null}
+ -t 1.94864 -s 1 -d 3 -p tcp -e 1040 -c 2 -i 29 -a 2 -x {0.1 3.0 10 ------- null}
r -t 1.95968 -s 2 -d 1 -p ack -e 40 -c 1 -i 30 -a 1 -x {2.0 0.0 5 ------- null}
+ -t 1.95968 -s 1 -d 0 -p ack -e 40 -c 1 -i 30 -a 1 -x {2.0 0.0 5 ------- null}
- -t 1.95968 -s 1 -d 0 -p ack -e 40 -c 1 -i 30 -a 1 -x {2.0 0.0 5 ------- null}
h -t 1.95968 -s 1 -d 0 -p ack -e 40 -c 1 -i 30 -a 1 -x {2.0 0.0 -1 ------- null}
r -t 1.97664 -s 1 -d 0 -p ack -e 40 -c 1 -i 25 -a 1 -x {2.0 0.0 4 ------- null}
1.97664  0  0  2  0  cwnd_ 6.000 
+ -t 1.97664 -s 0 -d 1 -p tcp -e 1040 -c 1 -i 38 -a 1 -x {0.0 2.0 9 ------- null}
- -t 1.97664 -s 0 -d 1 -p tcp -e 1040 -c 1 -i 38 -a 1 -x {0.0 2.0 9 ------- null}
h -t 1.97664 -s 0 -d 1 -p tcp -e 1040 -c 1 -i 38 -a 1 -x {0.0 2.0 -1 ------- null}
+ -t 1.97664 -s 0 -d 1 -p tcp -e 1040 -c 1 -i 39 -a 1 -x {0.0 2.0 10 ------- null}
- -t 1.9808 -s 0 -d 1 -p tcp -e 1040 -c 1 -i 39 -a 1 -x {0.0 2.0 10 ------- null}
h -t 1.9808 -s 0 -d 1 -p tcp -e 1040 -c 1 -i 39 -a 1 -x {0.0 2.0 -1 ------- null}
r -t 1.98608 -s 0 -d 1 -p tcp -e 1040 -c 2 -i 31 -a 2 -x {0.1 3.0 11 ------- null}
+ -t 1.98608 -s 1 -d 3 -p tcp -e 1040 -c 2 -i 31 -a 2 -x {0.1 3.0 11 ------- null}
- -t 1.98608 -s 1 -d 3 -p tcp -e 1040 -c 2 -i 28 -a 2 -x {0.1 3.0 9 ------- null}
h -t 1.98608 -s 1 -d 3 -p tcp -e 1040 -c 2 -i 28 -a 2 -x {0.1 3.0 -1 ------- null}
r -t 1.99024 -s 0 -d 1 -p tcp -e 1040 -c 2 -i 32 -a 2 -x {0.1 3.0 12 ------- null}
+ -t 1.99024 -s 1 -d 3 -p tcp -e 1040 -c 2 -i 32 -a 2 -x {0.1 3.0 12 ------- null}
r -t 1.9976 -s 0 -d 1 -p tcp -e 1040 -c 1 -i 33 -a 1 -x {0.0 2.0 7 ------- null}
+ -t 1.9976 -s 1 -d 2 -p tcp -e 1040 -c 1 -i 33 -a 1 -x {0.0 2.0 7 ------- null}
- -t 1.9976 -s 1 -d 2 -p tcp -e 1040 -c 1 -i 33 -a 1 -x {0.0 2.0 7 ------- null}
h -t 1.9976 -s 1 -d 2 -p tcp -e 1040 -c 1 -i 33 -a 1 -x {0.0 2.0 -1 ------- null}
r -t 2.00176 -s 0 -d 1 -p tcp -e 1040 -c 1 -i 34 -a 1 -x {0.0 2.0 8 ------- null}
+ -t 2.00176 -s 1 -d 2 -p tcp -e 1040 -c 1 -i 34 -a 1 -x {0.0 2.0 8 ------- null}
r -t 2.02768 -s 0 -d 1 -p tcp -e 1040 -c 2 -i 35 -a 2 -x {0.1 3.0 13 ------- null}
+ -t 2.02768 -s 1 -d 3 -p tcp -e 1040 -c 2 -i 35 -a 2 -x {0.1 3.0 13 ------- null}
- -t 2.02768 -s 1 -d 3 -p tcp -e 1040 -c 2 -i 29 -a 2 -x {0.1 3.0 10 ------- null}
h -t 2.02768 -s 1 -d 3 -p tcp -e 1040 -c 2 -i 29 -a 2 -x {0.1 3.0 -1 ------- null}
r -t 2.03184 -s 0 -d 1 -p tcp -e 1040 -c 2 -i 36 -a 2 -x {0.1 3.0 14 ------- null}
+ -t 2.03184 -s 1 -d 3 -p tcp -e 1040 -c 2 -i 36 -a 2 -x {0.1 3.0 14 ------- null}
r -t 2.04288 -s 2 -d 1 -p ack -e 40 -c 1 -i 37 -a 1 -x {2.0 0.0 6 ------- null}
+ -t 2.04288 -s 1 -d 0 -p ack -e 40 -c 1 -i 37 -a 1 -x {2.0 0.0 6 ------- null}
- -t 2.04288 -s 1 -d 0 -p ack -e 40 -c 1 -i 37 -a 1 -x {2.0 0.0 6 ------- null}
h -t 2.04288 -s 1 -d 0 -p ack -e 40 -c 1 -i 37 -a 1 -x {2.0 0.0 -1 ------- null}
r -t 2.04448 -s 1 -d 3 -p tcp -e 1040 -c 2 -i 26 -a 2 -x {0.1 3.0 7 ------- null}
+ -t 2.04448 -s 3 -d 1 -p ack -e 40 -c 2 -i 40 -a 2 -x {3.0 0.1 7 ------- null}
- -t 2.04448 -s 3 -d 1 -p ack -e 40 -c 2 -i 40 -a 2 -x {3.0 0.1 7 ------- null}
h -t 2.04448 -s 3 -d 1 -p ack -e 40 -c 2 -i 40 -a 2 -x {3.0 0.1 -1 ------- null}
r -t 2.05984 -s 1 -d 0 -p ack -e 40 -c 1 -i 30 -a 1 -x {2.0 0.0 5 ------- null}
2.05984  0  0  2  0  cwnd_ 7.000 
+ -t 2.05984 -s 0 -d 1 -p tcp -e 1040 -c 1 -i 41 -a 1 -x {0.0 2.0 11 ------- null}
- -t 2.05984 -s 0 -d 1 -p tcp -e 1040 -c 1 -i 41 -a 1 -x {0.0 2.0 11 ------- null}
h -t 2.05984 -s 0 -d 1 -p tcp -e 1040 -c 1 -i 41 -a 1 -x {0.0 2.0 -1 ------- null}
+ -t 2.05984 -s 0 -d 1 -p tcp -e 1040 -c 1 -i 42 -a 1 -x {0.0 2.0 12 ------- null}
- -t 2.064 -s 0 -d 1 -p tcp -e 1040 -c 1 -i 42 -a 1 -x {0.0 2.0 12 ------- null}
h -t 2.064 -s 0 -d 1 -p tcp -e 1040 -c 1 -i 42 -a 1 -x {0.0 2.0 -1 ------- null}
- -t 2.06928 -s 1 -d 3 -p tcp -e 1040 -c 2 -i 31 -a 2 -x {0.1 3.0 11 ------- null}
h -t 2.06928 -s 1 -d 3 -p tcp -e 1040 -c 2 -i 31 -a 2 -x {0.1 3.0 -1 ------- null}
r -t 2.0808 -s 0 -d 1 -p tcp -e 1040 -c 1 -i 38 -a 1 -x {0.0 2.0 9 ------- null}
+ -t 2.0808 -s 1 -d 2 -p tcp -e 1040 -c 1 -i 38 -a 1 -x {0.0 2.0 9 ------- null}
- -t 2.0808 -s 1 -d 2 -p tcp -e 1040 -c 1 -i 34 -a 1 -x {0.0 2.0 8 ------- null}
h -t 2.0808 -s 1 -d 2 -p tcp -e 1040 -c 1 -i 34 -a 1 -x {0.0 2.0 -1 ------- null}
r -t 2.08496 -s 0 -d 1 -p tcp -e 1040 -c 1 -i 39 -a 1 -x {0.0 2.0 10 ------- null}
+ -t 2.08496 -s 1 -d 2 -p tcp -e 1040 -c 1 -i 39 -a 1 -x {0.0 2.0 10 ------- null}
r -t 2.08608 -s 1 -d 3 -p tcp -e 1040 -c 2 -i 27 -a 2 -x {0.1 3.0 8 ------- null}
+ -t 2.08608 -s 3 -d 1 -p ack -e 40 -c 2 -i 43 -a 2 -x {3.0 0.1 8 ------- null}
- -t 2.08608 -s 3 -d 1 -p ack -e 40 -c 2 -i 43 -a 2 -x {3.0 0.1 8 ------- null}
h -t 2.08608 -s 3 -d 1 -p ack -e 40 -c 2 -i 43 -a 2 -x {3.0 0.1 -1 ------- null}
- -t 2.11088 -s 1 -d 3 -p tcp -e 1040 -c 2 -i 32 -a 2 -x {0.1 3.0 12 ------- null}
h -t 2.11088 -s 1 -d 3 -p tcp -e 1040 -c 2 -i 32 -a 2 -x {0.1 3.0 -1 ------- null}
r -t 2.12768 -s 1 -d 3 -p tcp -e 1040 -c 2 -i 28 -a 2 -x {0.1 3.0 9 ------- null}
+ -t 2.12768 -s 3 -d 1 -p ack -e 40 -c 2 -i 44 -a 2 -x {3.0 0.1 9 ------- null}
- -t 2.12768 -s 3 -d 1 -p ack -e 40 -c 2 -i 44 -a 2 -x {3.0 0.1 9 ------- null}
h -t 2.12768 -s 3 -d 1 -p ack -e 40 -c 2 -i 44 -a 2 -x {3.0 0.1 -1 ------- null}
r -t 2.14304 -s 1 -d 0 -p ack -e 40 -c 1 -i 37 -a 1 -x {2.0 0.0 6 ------- null}
2.14304  0  0  2  0  cwnd_ 8.000 
+ -t 2.14304 -s 0 -d 1 -p tcp -e 1040 -c 1 -i 45 -a 1 -x {0.0 2.0 13 ------- null}
- -t 2.14304 -s 0 -d 1 -p tcp -e 1040 -c 1 -i 45 -a 1 -x {0.0 2.0 13 ------- null}
h -t 2.14304 -s 0 -d 1 -p tcp -e 1040 -c 1 -i 45 -a 1 -x {0.0 2.0 -1 ------- null}
+ -t 2.14304 -s 0 -d 1 -p tcp -e 1040 -c 1 -i 46 -a 1 -x {0.0 2.0 14 ------- null}
r -t 2.14608 -s 3 -d 1 -p ack -e 40 -c 2 -i 40 -a 2 -x {3.0 0.1 7 ------- null}
+ -t 2.14608 -s 1 -d 0 -p ack -e 40 -c 2 -i 40 -a 2 -x {3.0 0.1 7 ------- null}
- -t 2.14608 -s 1 -d 0 -p ack -e 40 -c 2 -i 40 -a 2 -x {3.0 0.1 7 ------- null}
h -t 2.14608 -s 1 -d 0 -p ack -e 40 -c 2 -i 40 -a 2 -x {3.0 0.1 -1 ------- null}
- -t 2.1472 -s 0 -d 1 -p tcp -e 1040 -c 1 -i 46 -a 1 -x {0.0 2.0 14 ------- null}
h -t 2.1472 -s 0 -d 1 -p tcp -e 1040 -c 1 -i 46 -a 1 -x {0.0 2.0 -1 ------- null}
- -t 2.15248 -s 1 -d 3 -p tcp -e 1040 -c 2 -i 35 -a 2 -x {0.1 3.0 13 ------- null}
h -t 2.15248 -s 1 -d 3 -p tcp -e 1040 -c 2 -i 35 -a 2 -x {0.1 3.0 -1 ------- null}
r -t 2.164 -s 0 -d 1 -p tcp -e 1040 -c 1 -i 41 -a 1 -x {0.0 2.0 11 ------- null}
+ -t 2.164 -s 1 -d 2 -p tcp -e 1040 -c 1 -i 41 -a 1 -x {0.0 2.0 11 ------- null}
- -t 2.164 -s 1 -d 2 -p tcp -e 1040 -c 1 -i 38 -a 1 -x {0.0 2.0 9 ------- null}
h -t 2.164 -s 1 -d 2 -p tcp -e 1040 -c 1 -i 38 -a 1 -x {0.0 2.0 -1 ------- null}
r -t 2.16816 -s 0 -d 1 -p tcp -e 1040 -c 1 -i 42 -a 1 -x {0.0 2.0 12 ------- null}
+ -t 2.16816 -s 1 -d 2 -p tcp -e 1040 -c 1 -i 42 -a 1 -x {0.0 2.0 12 ------- null}
r -t 2.16928 -s 1 -d 3 -p tcp -e 1040 -c 2 -i 29 -a 2 -x {0.1 3.0 10 ------- null}
+ -t 2.16928 -s 3 -d 1 -p ack -e 40 -c 2 -i 47 -a 2 -x {3.0 0.1 10 ------- null}
- -t 2.16928 -s 3 -d 1 -p ack -e 40 -c 2 -i 47 -a 2 -x {3.0 0.1 10 ------- null}
h -t 2.16928 -s 3 -d 1 -p ack -e 40 -c 2 -i 47 -a 2 -x {3.0 0.1 -1 ------- null}
r -t 2.1808 -s 1 -d 2 -p tcp -e 1040 -c 1 -i 33 -a 1 -x {0.0 2.0 7 ------- null}
+ -t 2.1808 -s 2 -d 1 -p ack -e 40 -c 1 -i 48 -a 1 -x {2.0 0.0 7 ------- null}
- -t 2.1808 -s 2 -d 1 -p ack -e 40 -c 1 -i 48 -a 1 -x {2.0 0.0 7 ------- null}
h -t 2.1808 -s 2 -d 1 -p ack -e 40 -c 1 -i 48 -a 1 -x {2.0 0.0 -1 ------- null}
r -t 2.18768 -s 3 -d 1 -p ack -e 40 -c 2 -i 43 -a 2 -x {3.0 0.1 8 ------- null}
+ -t 2.18768 -s 1 -d 0 -p ack -e 40 -c 2 -i 43 -a 2 -x {3.0 0.1 8 ------- null}
- -t 2.18768 -s 1 -d 0 -p ack -e 40 -c 2 -i 43 -a 2 -x {3.0 0.1 8 ------- null}
h -t 2.18768 -s 1 -d 0 -p ack -e 40 -c 2 -i 43 -a 2 -x {3.0 0.1 -1 ------- null}
- -t 2.19408 -s 1 -d 3 -p tcp -e 1040 -c 2 -i 36 -a 2 -x {0.1 3.0 14 ------- null}
h -t 2.19408 -s 1 -d 3 -p tcp -e 1040 -c 2 -i 36 -a 2 -x {0.1 3.0 -1 ------- null}
r -t 2.21088 -s 1 -d 3 -p tcp -e 1040 -c 2 -i 31 -a 2 -x {0.1 3.0 11 ------- null}
+ -t 2.21088 -s 3 -d 1 -p ack -e 40 -c 2 -i 49 -a 2 -x {3.0 0.1 11 ------- null}
- -t 2.21088 -s 3 -d 1 -p ack -e 40 -c 2 -i 49 -a 2 -x {3.0 0.1 11 ------- null}
h -t 2.21088 -s 3 -d 1 -p ack -e 40 -c 2 -i 49 -a 2 -x {3.0 0.1 -1 ------- null}
r -t 2.22928 -s 3 -d 1 -p ack -e 40 -c 2 -i 44 -a 2 -x {3.0 0.1 9 ------- null}
+ -t 2.22928 -s 1 -d 0 -p ack -e 40 -c 2 -i 44 -a 2 -x {3.0 0.1 9 ------- null}