+ 0.5 0 4 tcp 40 ------- 4 0.0 10.0 0 0
- 0.5 0 4 tcp 40 ------- 4 0.0 10.0 0 0
r 0.550064 0 4 tcp 40 ------- 4 0.0 10.0 0 0
+ 0.550064 4 5 tcp 40 ------- 4 0.0 10.0 0 0
- 0.550064 4 5 tcp 40 ------- 4 0.0 10.0 0 0
+ 0.58 1 4 tcp 40 ------- 2 1.0 10.1 0 1
- 0.58 1 4 tcp 40 ------- 2 1.0 10.1 0 1
+ 0.6 3 4 tcp 40 ------- 3 3.0 10.3 0 2
- 0.6 3 4 tcp 40 ------- 3 3.0 10.3 0 2
r 0.600128 4 5 tcp 40 ------- 4 0.0 10.0 0 0
+ 0.600128 5 6 tcp 40 ------- 4 0.0 10.0 0 0
- 0.600128 5 6 tcp 40 ------- 4 0.0 10.0 0 0
r 0.630064 1 4 tcp 40 ------- 2 1.0 10.1 0 1
+ 0.630064 4 5 tcp 40 ------- 2 1.0 10.1 0 1
- 0.630064 4 5 tcp 40 ------- 2 1.0 10.1 0 1
+ 0.65 2 4 tcp 40 ------- 0 2.0 10.2 0 3
- 0.65 2 4 tcp 40 ------- 0 2.0 10.2 0 3
r 0.650064 3 4 tcp 40 ------- 3 3.0 10.3 0 2
+ 0.650064 4 5 tcp 40 ------- 3 3.0 10.3 0 2
- 0.650064 4 5 tcp 40 ------- 3 3.0 10.3 0 2
r 0.652261 5 6 tcp 40 ------- 4 0.0 10.0 0 0
+ 0.652261 6 7 tcp 40 ------- 4 0.0 10.0 0 0
- 0.652261 6 7 tcp 40 ------- 4 0.0 10.0 0 0
r 0.680128 4 5 tcp 40 ------- 2 1.0 10.1 0 1
+ 0.680128 5 6 tcp 40 ------- 2 1.0 10.1 0 1
- 0.680128 5 6 tcp 40 ------- 2 1.0 10.1 0 1
r 0.700064 2 4 tcp 40 ------- 0 2.0 10.2 0 3
+ 0.700064 4 5 tcp 40 ------- 0 2.0 10.2 0 3
- 0.700064 4 5 tcp 40 ------- 0 2.0 10.2 0 3
r 0.700128 4 5 tcp 40 ------- 3 3.0 10.3 0 2
+ 0.700128 5 6 tcp 40 ------- 3 3.0 10.3 0 2
- 0.700128 5 6 tcp 40 ------- 3 3.0 10.3 0 2
r 0.703328 6 7 tcp 40 ------- 4 0.0 10.0 0 0
+ 0.703328 7 8 tcp 40 ------- 4 0.0 10.0 0 0
- 0.703328 7 8 tcp 40 ------- 4 0.0 10.0 0 0
r 0.732261 5 6 tcp 40 ------- 2 1.0 10.1 0 1
+ 0.732261 6 7 tcp 40 ------- 2 1.0 10.1 0 1
- 0.732261 6 7 tcp 40 ------- 2 1.0 10.1 0 1
r 0.750128 4 5 tcp 40 ------- 0 2.0 10.2 0 3
+ 0.750128 5 6 tcp 40 ------- 0 2.0 10.2 0 3
- 0.750128 5 6 tcp 40 ------- 0 2.0 10.2 0 3
r 0.752261 5 6 tcp 40 ------- 3 3.0 10.3 0 2
+ 0.752261 6 7 tcp 40 ------- 3 3.0 10.3 0 2
- 0.752261 6 7 tcp 40 ------- 3 3.0 10.3 0 2
r 0.756528 7 8 tcp 40 ------- 4 0.0 10.0 0 0
+ 0.756528 8 9 tcp 40 ------- 4 0.0 10.0 0 0
- 0.756528 8 9 tcp 40 ------- 4 0.0 10.0 0 0
r 0.783328 6 7 tcp 40 ------- 2 1.0 10.1 0 1
+ 0.783328 7 8 tcp 40 ------- 2 1.0 10.1 0 1
- 0.783328 7 8 tcp 40 ------- 2 1.0 10.1 0 1
r 0.802261 5 6 tcp 40 ------- 0 2.0 10.2 0 3
+ 0.802261 6 7 tcp 40 ------- 0 2.0 10.2 0 3
- 0.802261 6 7 tcp 40 ------- 0 2.0 10.2 0 3
r 0.803328 6 7 tcp 40 ------- 3 3.0 10.3 0 2
+ 0.803328 7 8 tcp 40 ------- 3 3.0 10.3 0 2
- 0.803328 7 8 tcp 40 ------- 3 3.0 10.3 0 2
r 0.807595 8 9 tcp 40 ------- 4 0.0 10.0 0 0
+ 0.807595 9 10 tcp 40 ------- 4 0.0 10.0 0 0
- 0.807595 9 10 tcp 40 ------- 4 0.0 10.0 0 0
r 0.836528 7 8 tcp 40 ------- 2 1.0 10.1 0 1
+ 0.836528 8 9 tcp 40 ------- 2 1.0 10.1 0 1
- 0.836528 8 9 tcp 40 ------- 2 1.0 10.1 0 1
r 0.853328 6 7 tcp 40 ------- 0 2.0 10.2 0 3
+ 0.853328 7 8 tcp 40 ------- 0 2.0 10.2 0 3
- 0.853328 7 8 tcp 40 ------- 0 2.0 10.2 0 3
r 0.856528 7 8 tcp 40 ------- 3 3.0 10.3 0 2
+ 0.856528 8 9 tcp 40 ------- 3 3.0 10.3 0 2
- 0.856528 8 9 tcp 40 ------- 3 3.0 10.3 0 2
r 0.858661 9 10 tcp 40 ------- 4 0.0 10.0 0 0
+ 0.858661 10 9 ack 40 ------- 4 10.0 0.0 0 4
- 0.858661 10 9 ack 40 ------- 4 10.0 0.0 0 4
r 0.887595 8 9 tcp 40 ------- 2 1.0 10.1 0 1
+ 0.887595 9 10 tcp 40 ------- 2 1.0 10.1 0 1
- 0.887595 9 10 tcp 40 ------- 2 1.0 10.1 0 1
r 0.906528 7 8 tcp 40 ------- 0 2.0 10.2 0 3
+ 0.906528 8 9 tcp 40 ------- 0 2.0 10.2 0 3
- 0.906528 8 9 tcp 40 ------- 0 2.0 10.2 0 3
r 0.907595 8 9 tcp 40 ------- 3 3.0 10.3 0 2
+ 0.907595 9 10 tcp 40 ------- 3 3.0 10.3 0 2
- 0.907595 9 10 tcp 40 ------- 3 3.0 10.3 0 2
r 0.909728 10 9 ack 40 ------- 4 10.0 0.0 0 4
+ 0.909728 9 8 ack 40 ------- 4 10.0 0.0 0 4
- 0.909728 9 8 ack 40 ------- 4 10.0 0.0 0 4
r 0.938661 9 10 tcp 40 ------- 2 1.0 10.1 0 1
+ 0.938661 10 9 ack 40 ------- 2 10.1 1.0 0 5
- 0.938661 10 9 ack 40 ------- 2 10.1 1.0 0 5
r 0.957595 8 9 tcp 40 ------- 0 2.0 10.2 0 3
+ 0.957595 9 10 tcp 40 ------- 0 2.0 10.2 0 3
- 0.957595 9 10 tcp 40 ------- 0 2.0 10.2 0 3
r 0.958661 9 10 tcp 40 ------- 3 3.0 10.3 0 2
+ 0.958661 10 9 ack 40 ------- 3 10.3 3.0 0 6
- 0.958661 10 9 ack 40 ------- 3 10.3 3.0 0 6
r 0.960795 9 8 ack 40 ------- 4 10.0 0.0 0 4
+ 0.960795 8 7 ack 40 ------- 4 10.0 0.0 0 4
- 0.960795 8 7 ack 40 ------- 4 10.0 0.0 0 4
r 0.989728 10 9 ack 40 ------- 2 10.1 1.0 0 5
+ 0.989728 9 8 ack 40 ------- 2 10.1 1.0 0 5
- 0.989728 9 8 ack 40 ------- 2 10.1 1.0 0 5
r 1.008661 9 10 tcp 40 ------- 0 2.0 10.2 0 3
+ 1.008661 10 9 ack 40 ------- 0 10.2 2.0 0 7
- 1.008661 10 9 ack 40 ------- 0 10.2 2.0 0 7
r 1.009728 10 9 ack 40 ------- 3 10.3 3.0 0 6
+ 1.009728 9 8 ack 40 ------- 3 10.3 3.0 0 6
- 1.009728 9 8 ack 40 ------- 3 10.3 3.0 0 6
r 1.013995 8 7 ack 40 ------- 4 10.0 0.0 0 4
+ 1.013995 7 6 ack 40 ------- 4 10.0 0.0 0 4
- 1.013995 7 6 ack 40 ------- 4 10.0 0.0 0 4
r 1.040795 9 8 ack 40 ------- 2 10.1 1.0 0 5
+ 1.040795 8 7 ack 40 ------- 2 10.1 1.0 0 5
- 1.040795 8 7 ack 40 ------- 2 10.1 1.0 0 5
r 1.059728 10 9 ack 40 ------- 0 10.2 2.0 0 7
+ 1.059728 9 8 ack 40 ------- 0 10.2 2.0 0 7
- 1.059728 9 8 ack 40 ------- 0 10.2 2.0 0 7
r 1.060795 9 8 ack 40 ------- 3 10.3 3.0 0 6
+ 1.060795 8 7 ack 40 ------- 3 10.3 3.0 0 6
- 1.060795 8 7 ack 40 ------- 3 10.3 3.0 0 6
r 1.065061 7 6 ack 40 ------- 4 10.0 0.0 0 4
+ 1.065061 6 5 ack 40 ------- 4 10.0 0.0 0 4
- 1.065061 6 5 ack 40 ------- 4 10.0 0.0 0 4
r 1.093995 8 7 ack 40 ------- 2 10.1 1.0 0 5
+ 1.093995 7 6 ack 40 ------- 2 10.1 1.0 0 5
- 1.093995 7 6 ack 40 ------- 2 10.1 1.0 0 5
r 1.110795 9 8 ack 40 ------- 0 10.2 2.0 0 7
+ 1.110795 8 7 ack 40 ------- 0 10.2 2.0 0 7
- 1.110795 8 7 ack 40 ------- 0 10.2 2.0 0 7
r 1.113995 8 7 ack 40 ------- 3 10.3 3.0 0 6
+ 1.113995 7 6 ack 40 ------- 3 10.3 3.0 0 6
- 1.113995 7 6 ack 40 ------- 3 10.3 3.0 0 6
r 1.117195 6 5 ack 40 ------- 4 10.0 0.0 0 4
+ 1.117195 5 4 ack 40 ------- 4 10.0 0.0 0 4
- 1.117195 5 4 ack 40 ------- 4 10.0 0.0 0 4
r 1.145061 7 6 ack 40 ------- 2 10.1 1.0 0 5
+ 1.145061 6 5 ack 40 ------- 2 10.1 1.0 0 5
- 1.145061 6 5 ack 40 ------- 2 10.1 1.0 0 5
r 1.163995 8 7 ack 40 ------- 0 10.2 2.0 0 7
+ 1.163995 7 6 ack 40 ------- 0 10.2 2.0 0 7
- 1.163995 7 6 ack 40 ------- 0 10.2 2.0 0 7
r 1.165061 7 6 ack 40 ------- 3 10.3 3.0 0 6
+ 1.165061 6 5 ack 40 ------- 3 10.3 3.0 0 6
- 1.165061 6 5 ack 40 ------- 3 10.3 3.0 0 6
r 1.167259 5 4 ack 40 ------- 4 10.0 0.0 0 4
+ 1.167259 4 0 ack 40 ------- 4 10.0 0.0 0 4
- 1.167259 4 0 ack 40 ------- 4 10.0 0.0 0 4
r 1.197195 6 5 ack 40 ------- 2 10.1 1.0 0 5
+ 1.197195 5 4 ack 40 ------- 2 10.1 1.0 0 5
- 1.197195 5 4 ack 40 ------- 2 10.1 1.0 0 5
r 1.215061 7 6 ack 40 ------- 0 10.2 2.0 0 7
+ 1.215061 6 5 ack 40 ------- 0 10.2 2.0 0 7
- 1.215061 6 5 ack 40 ------- 0 10.2 2.0 0 7
r 1.217195 6 5 ack 40 ------- 3 10.3 3.0 0 6
+ 1.217195 5 4 ack 40 ------- 3 10.3 3.0 0 6
- 1.217195 5 4 ack 40 ------- 3 10.3 3.0 0 6
r 1.217323 4 0 ack 40 ------- 4 10.0 0.0 0 4
+ 1.217323 0 4 tcp 1040 ------- 4 0.0 10.0 1 8
- 1.217323 0 4 tcp 1040 ------- 4 0.0 10.0 1 8
+ 1.217323 0 4 tcp 1040 ------- 4 0.0 10.0 2 9
- 1.218987 0 4 tcp 1040 ------- 4 0.0 10.0 2 9
r 1.247259 5 4 ack 40 ------- 2 10.1 1.0 0 5
+ 1.247259 4 1 ack 40 ------- 2 10.1 1.0 0 5
- 1.247259 4 1 ack 40 ------- 2 10.1 1.0 0 5
r 1.267195 6 5 ack 40 ------- 0 10.2 2.0 0 7
+ 1.267195 5 4 ack 40 ------- 0 10.2 2.0 0 7
- 1.267195 5 4 ack 40 ------- 0 10.2 2.0 0 7
r 1.267259 5 4 ack 40 ------- 3 10.3 3.0 0 6
+ 1.267259 4 3 ack 40 ------- 3 10.3 3.0 0 6
- 1.267259 4 3 ack 40 ------- 3 10.3 3.0 0 6
r 1.268987 0 4 tcp 1040 ------- 4 0.0 10.0 1 8
+ 1.268987 4 5 tcp 1040 ------- 4 0.0 10.0 1 8
- 1.268987 4 5 tcp 1040 ------- 4 0.0 10.0 1 8
r 1.270651 0 4 tcp 1040 ------- 4 0.0 10.0 2 9
+ 1.270651 4 5 tcp 1040 ------- 4 0.0 10.0 2 9
- 1.270651 4 5 tcp 1040 ------- 4 0.0 10.0 2 9
r 1.297323 4 1 ack 40 ------- 2 10.1 1.0 0 5
+ 1.297323 1 4 tcp 1040 ------- 2 1.0 10.1 1 10
- 1.297323 1 4 tcp 1040 ------- 2 1.0 10.1 1 10
+ 1.297323 1 4 tcp 1040 ------- 2 1.0 10.1 2 11
- 1.298987 1 4 tcp 1040 ------- 2 1.0 10.1 2 11
r 1.317259 5 4 ack 40 ------- 0 10.2 2.0 0 7
+ 1.317259 4 2 ack 40 ------- 0 10.2 2.0 0 7
- 1.317259 4 2 ack 40 ------- 0 10.2 2.0 0 7
r 1.317323 4 3 ack 40 ------- 3 10.3 3.0 0 6
+ 1.317323 3 4 tcp 1040 ------- 3 3.0 10.3 1 12
- 1.317323 3 4 tcp 1040 ------- 3 3.0 10.3 1 12
+ 1.317323 3 4 tcp 1040 ------- 3 3.0 10.3 2 13
- 1.318987 3 4 tcp 1040 ------- 3 3.0 10.3 2 13
r 1.320651 4 5 tcp 1040 ------- 4 0.0 10.0 1 8
+ 1.320651 5 6 tcp 1040 ------- 4 0.0 10.0 1 8
- 1.320651 5 6 tcp 1040 ------- 4 0.0 10.0 1 8
r 1.322315 4 5 tcp 1040 ------- 4 0.0 10.0 2 9
+ 1.322315 5 6 tcp 1040 ------- 4 0.0 10.0 2 9
r 1.348987 1 4 tcp 1040 ------- 2 1.0 10.1 1 10
+ 1.348987 4 5 tcp 1040 ------- 2 1.0 10.1 1 10
- 1.348987 4 5 tcp 1040 ------- 2 1.0 10.1 1 10
r 1.350651 1 4 tcp 1040 ------- 2 1.0 10.1 2 11
+ 1.350651 4 5 tcp 1040 ------- 2 1.0 10.1 2 11
- 1.350651 4 5 tcp 1040 ------- 2 1.0 10.1 2 11
r 1.367323 4 2 ack 40 ------- 0 10.2 2.0 0 7
+ 1.367323 2 4 tcp 1040 ------- 0 2.0 10.2 1 14
- 1.367323 2 4 tcp 1040 ------- 0 2.0 10.2 1 14
+ 1.367323 2 4 tcp 1040 ------- 0 2.0 10.2 2 15
r 1.368987 3 4 tcp 1040 ------- 3 3.0 10.3 1 12
+ 1.368987 4 5 tcp 1040 ------- 3 3.0 10.3 1 12
- 1.368987 4 5 tcp 1040 ------- 3 3.0 10.3 1 12
- 1.368987 2 4 tcp 1040 ------- 0 2.0 10.2 2 15
r 1.370651 3 4 tcp 1040 ------- 3 3.0 10.3 2 13
+ 1.370651 4 5 tcp 1040 ------- 3 3.0 10.3 2 13
- 1.370651 4 5 tcp 1040 ------- 3 3.0 10.3 2 13
- 1.376117 5 6 tcp 1040 ------- 4 0.0 10.0 2 9
r 1.400651 4 5 tcp 1040 ------- 2 1.0 10.1 1 10
+ 1.400651 5 6 tcp 1040 ------- 2 1.0 10.1 1 10
r 1.402315 4 5 tcp 1040 ------- 2 1.0 10.1 2 11
+ 1.402315 5 6 tcp 1040 ------- 2 1.0 10.1 2 11
r 1.418987 2 4 tcp 1040 ------- 0 2.0 10.2 1 14
+ 1.418987 4 5 tcp 1040 ------- 0 2.0 10.2 1 14
- 1.418987 4 5 tcp 1040 ------- 0 2.0 10.2 1 14
r 1.420651 4 5 tcp 1040 ------- 3 3.0 10.3 1 12
+ 1.420651 5 6 tcp 1040 ------- 3 3.0 10.3 1 12
r 1.420651 2 4 tcp 1040 ------- 0 2.0 10.2 2 15
+ 1.420651 4 5 tcp 1040 ------- 0 2.0 10.2 2 15
- 1.420651 4 5 tcp 1040 ------- 0 2.0 10.2 2 15
r 1.422315 4 5 tcp 1040 ------- 3 3.0 10.3 2 13
+ 1.422315 5 6 tcp 1040 ------- 3 3.0 10.3 2 13
r 1.426117 5 6 tcp 1040 ------- 4 0.0 10.0 1 8
+ 1.426117 6 7 tcp 1040 ------- 4 0.0 10.0 1 8
- 1.426117 6 7 tcp 1040 ------- 4 0.0 10.0 1 8
- 1.431584 5 6 tcp 1040 ------- 2 1.0 10.1 1 10
r 1.470651 4 5 tcp 1040 ------- 0 2.0 10.2 1 14
+ 1.470651 5 6 tcp 1040 ------- 0 2.0 10.2 1 14
r 1.472315 4 5 tcp 1040 ------- 0 2.0 10.2 2 15
+ 1.472315 5 6 tcp 1040 ------- 0 2.0 10.2 2 15
r 1.481584 5 6 tcp 1040 ------- 4 0.0 10.0 2 9
+ 1.481584 6 7 tcp 1040 ------- 4 0.0 10.0 2 9
- 1.481584 6 7 tcp 1040 ------- 4 0.0 10.0 2 9
- 1.487051 5 6 tcp 1040 ------- 2 1.0 10.1 2 11
r 1.503851 6 7 tcp 1040 ------- 4 0.0 10.0 1 8
+ 1.503851 7 8 tcp 1040 ------- 4 0.0 10.0 1 8
- 1.503851 7 8 tcp 1040 ------- 4 0.0 10.0 1 8
r 1.537051 5 6 tcp 1040 ------- 2 1.0 10.1 1 10
+ 1.537051 6 7 tcp 1040 ------- 2 1.0 10.1 1 10
- 1.537051 6 7 tcp 1040 ------- 2 1.0 10.1 1 10
- 1.542517 5 6 tcp 1040 ------- 3 3.0 10.3 1 12
r 1.559317 6 7 tcp 1040 ------- 4 0.0 10.0 2 9
+ 1.559317 7 8 tcp 1040 ------- 4 0.0 10.0 2 9
- 1.587051 7 8 tcp 1040 ------- 4 0.0 10.0 2 9
r 1.592517 5 6 tcp 1040 ------- 2 1.0 10.1 2 11
+ 1.592517 6 7 tcp 1040 ------- 2 1.0 10.1 2 11
- 1.592517 6 7 tcp 1040 ------- 2 1.0 10.1 2 11
- 1.597984 5 6 tcp 1040 ------- 3 3.0 10.3 2 13
r 1.614784 6 7 tcp 1040 ------- 2 1.0 10.1 1 10
+ 1.614784 7 8 tcp 1040 ------- 2 1.0 10.1 1 10
r 1.637051 7 8 tcp 1040 ------- 4 0.0 10.0 1 8
+ 1.637051 8 9 tcp 1040 ------- 4 0.0 10.0 1 8
- 1.637051 8 9 tcp 1040 ------- 4 0.0 10.0 1 8
r 1.647984 5 6 tcp 1040 ------- 3 3.0 10.3 1 12
+ 1.647984 6 7 tcp 1040 ------- 3 3.0 10.3 1 12
- 1.647984 6 7 tcp 1040 ------- 3 3.0 10.3 1 12
- 1.653451 5 6 tcp 1040 ------- 0 2.0 10.2 1 14
- 1.670251 7 8 tcp 1040 ------- 2 1.0 10.1 1 10
r 1.670251 6 7 tcp 1040 ------- 2 1.0 10.1 2 11
+ 1.670251 7 8 tcp 1040 ------- 2 1.0 10.1 2 11
r 1.703451 5 6 tcp 1040 ------- 3 3.0 10.3 2 13
+ 1.703451 6 7 tcp 1040 ------- 3 3.0 10.3 2 13
- 1.703451 6 7 tcp 1040 ------- 3 3.0 10.3 2 13
- 1.708917 5 6 tcp 1040 ------- 0 2.0 10.2 2 15
r 1.714784 8 9 tcp 1040 ------- 4 0.0 10.0 1 8
+ 1.714784 9 10 tcp 1040 ------- 4 0.0 10.0 1 8
- 1.714784 9 10 tcp 1040 ------- 4 0.0 10.0 1 8
r 1.720251 7 8 tcp 1040 ------- 4 0.0 10.0 2 9
+ 1.720251 8 9 tcp 1040 ------- 4 0.0 10.0 2 9
- 1.720251 8 9 tcp 1040 ------- 4 0.0 10.0 2 9
r 1.725717 6 7 tcp 1040 ------- 3 3.0 10.3 1 12
+ 1.725717 7 8 tcp 1040 ------- 3 3.0 10.3 1 12
- 1.753451 7 8 tcp 1040 ------- 2 1.0 10.1 2 11
r 1.758917 5 6 tcp 1040 ------- 0 2.0 10.2 1 14
+ 1.758917 6 7 tcp 1040 ------- 0 2.0 10.2 1 14
- 1.758917 6 7 tcp 1040 ------- 0 2.0 10.2 1 14
r 1.781184 6 7 tcp 1040 ------- 3 3.0 10.3 2 13
+ 1.781184 7 8 tcp 1040 ------- 3 3.0 10.3 2 13
r 1.792517 9 10 tcp 1040 ------- 4 0.0 10.0 1 8
+ 1.792517 10 9 ack 40 ------- 4 10.0 0.0 1 16
- 1.792517 10 9 ack 40 ------- 4 10.0 0.0 1 16
r 1.797984 8 9 tcp 1040 ------- 4 0.0 10.0 2 9
+ 1.797984 9 10 tcp 1040 ------- 4 0.0 10.0 2 9
- 1.797984 9 10 tcp 1040 ------- 4 0.0 10.0 2 9
r 1.803451 7 8 tcp 1040 ------- 2 1.0 10.1 1 10
+ 1.803451 8 9 tcp 1040 ------- 2 1.0 10.1 1 10
- 1.803451 8 9 tcp 1040 ------- 2 1.0 10.1 1 10
r 1.814384 5 6 tcp 1040 ------- 0 2.0 10.2 2 15
+ 1.814384 6 7 tcp 1040 ------- 0 2.0 10.2 2 15
- 1.814384 6 7 tcp 1040 ------- 0 2.0 10.2 2 15
- 1.836651 7 8 tcp 1040 ------- 3 3.0 10.3 1 12
r 1.836651 6 7 tcp 1040 ------- 0 2.0 10.2 1 14
+ 1.836651 7 8 tcp 1040 ------- 0 2.0 10.2 1 14
r 1.843584 10 9 ack 40 ------- 4 10.0 0.0 1 16
+ 1.843584 9 8 ack 40 ------- 4 10.0 0.0 1 16
- 1.843584 9 8 ack 40 ------- 4 10.0 0.0 1 16
r 1.875717 9 10 tcp 1040 ------- 4 0.0 10.0 2 9
+ 1.875717 10 9 ack 40 ------- 4 10.0 0.0 2 17
- 1.875717 10 9 ack 40 ------- 4 10.0 0.0 2 17
r 1.881184 8 9 tcp 1040 ------- 2 1.0 10.1 1 10
+ 1.881184 9 10 tcp 1040 ------- 2 1.0 10.1 1 10
- 1.881184 9 10 tcp 1040 ------- 2 1.0 10.1 1 10
r 1.886651 7 8 tcp 1040 ------- 2 1.0 10.1 2 11
+ 1.886651 8 9 tcp 1040 ------- 2 1.0 10.1 2 11
- 1.886651 8 9 tcp 1040 ------- 2 1.0 10.1 2 11
r 1.892117 6 7 tcp 1040 ------- 0 2.0 10.2 2 15
+ 1.892117 7 8 tcp 1040 ------- 0 2.0 10.2 2 15
r 1.894651 9 8 ack 40 ------- 4 10.0 0.0 1 16
+ 1.894651 8 7 ack 40 ------- 4 10.0 0.0 1 16
- 1.894651 8 7 ack 40 ------- 4 10.0 0.0 1 16
- 1.919851 7 8 tcp 1040 ------- 3 3.0 10.3 2 13
r 1.926784 10 9 ack 40 ------- 4 10.0 0.0 2 17
+ 1.926784 9 8 ack 40 ------- 4 10.0 0.0 2 17
- 1.926784 9 8 ack 40 ------- 4 10.0 0.0 2 17
r 1.947851 8 7 ack 40 ------- 4 10.0 0.0 1 16
+ 1.947851 7 6 ack 40 ------- 4 10.0 0.0 1 16
- 1.947851 7 6 ack 40 ------- 4 10.0 0.0 1 16
r 1.958917 9 10 tcp 1040 ------- 2 1.0 10.1 1 10
+ 1.958917 10 9 ack 40 ------- 2 10.1 1.0 1 18
- 1.958917 10 9 ack 40 ------- 2 10.1 1.0 1 18
r 1.964384 8 9 tcp 1040 ------- 2 1.0 10.1 2 11
+ 1.964384 9 10 tcp 1040 ------- 2 1.0 10.1 2 11
- 1.964384 9 10 tcp 1040 ------- 2 1.0 10.1 2 11
r 1.969851 7 8 tcp 1040 ------- 3 3.0 10.3 1 12
+ 1.969851 8 9 tcp 1040 ------- 3 3.0 10.3 1 12
- 1.969851 8 9 tcp 1040 ------- 3 3.0 10.3 1 12
r 1.977851 9 8 ack 40 ------- 4 10.0 0.0 2 17
+ 1.977851 8 7 ack 40 ------- 4 10.0 0.0 2 17
- 1.977851 8 7 ack 40 ------- 4 10.0 0.0 2 17
r 1.998917 7 6 ack 40 ------- 4 10.0 0.0 1 16
+ 1.998917 6 5 ack 40 ------- 4 10.0 0.0 1 16
- 1.998917 6 5 ack 40 ------- 4 10.0 0.0 1 16
- 2.003051 7 8 tcp 1040 ------- 0 2.0 10.2 1 14
r 2.009984 10 9 ack 40 ------- 2 10.1 1.0 1 18
+ 2.009984 9 8 ack 40 ------- 2 10.1 1.0 1 18
- 2.009984 9 8 ack 40 ------- 2 10.1 1.0 1 18
r 2.031051 8 7 ack 40 ------- 4 10.0 0.0 2 17
+ 2.031051 7 6 ack 40 ------- 4 10.0 0.0 2 17
- 2.031051 7 6 ack 40 ------- 4 10.0 0.0 2 17
r 2.042117 9 10 tcp 1040 ------- 2 1.0 10.1 2 11
+ 2.042117 10 9 ack 40 ------- 2 10.1 1.0 2 19
- 2.042117 10 9 ack 40 ------- 2 10.1 1.0 2 19
r 2.047584 8 9 tcp 1040 ------- 3 3.0 10.3 1 12
+ 2.047584 9 10 tcp 1040 ------- 3 3.0 10.3 1 12
- 2.047584 9 10 tcp 1040 ------- 3 3.0 10.3 1 12
r 2.051051 6 5 ack 40 ------- 4 10.0 0.0 1 16
+ 2.051051 5 4 ack 40 ------- 4 10.0 0.0 1 16
- 2.051051 5 4 ack 40 ------- 4 10.0 0.0 1 16
r 2.053051 7 8 tcp 1040 ------- 3 3.0 10.3 2 13
+ 2.053051 8 9 tcp 1040 ------- 3 3.0 10.3 2 13
- 2.053051 8 9 tcp 1040 ------- 3 3.0 10.3 2 13
r 2.061051 9 8 ack 40 ------- 2 10.1 1.0 1 18
+ 2.061051 8 7 ack 40 ------- 2 10.1 1.0 1 18
- 2.061051 8 7 ack 40 ------- 2 10.1 1.0 1 18
r 2.082117 7 6 ack 40 ------- 4 10.0 0.0 2 17
+ 2.082117 6 5 ack 40 ------- 4 10.0 0.0 2 17
- 2.082117 6 5 ack 40 ------- 4 10.0 0.0 2 17
- 2.086251 7 8 tcp 1040 ------- 0 2.0 10.2 2 15
r 2.093184 10 9 ack 40 ------- 2 10.1 1.0 2 19
+ 2.093184 9 8 ack 40 ------- 2 10.1 1.0 2 19
- 2.093184 9 8 ack 40 ------- 2 10.1 1.0 2 19
r 2.101115 5 4 ack 40 ------- 4 10.0 0.0 1 16
+ 2.101115 4 0 ack 40 ------- 4 10.0 0.0 1 16
- 2.101115 4 0 ack 40 ------- 4 10.0 0.0 1 16
r 2.114251 8 7 ack 40 ------- 2 10.1 1.0 1 18
+ 2.114251 7 6 ack 40 ------- 2 10.1 1.0 1 18
- 2.114251 7 6 ack 40 ------- 2 10.1 1.0 1 18
r 2.125317 9 10 tcp 1040 ------- 3 3.0 10.3 1 12
+ 2.125317 10 9 ack 40 ------- 3 10.3 3.0 1 20
- 2.125317 10 9 ack 40 ------- 3 10.3 3.0 1 20
r 2.130784 8 9 tcp 1040 ------- 3 3.0 10.3 2 13
+ 2.130784 9 10 tcp 1040 ------- 3 3.0 10.3 2 13
- 2.130784 9 10 tcp 1040 ------- 3 3.0 10.3 2 13
r 2.134251 6 5 ack 40 ------- 4 10.0 0.0 2 17
+ 2.134251 5 4 ack 40 ------- 4 10.0 0.0 2 17
- 2.134251 5 4 ack 40 ------- 4 10.0 0.0 2 17
r 2.136251 7 8 tcp 1040 ------- 0 2.0 10.2 1 14
+ 2.136251 8 9 tcp 1040 ------- 0 2.0 10.2 1 14
- 2.136251 8 9 tcp 1040 ------- 0 2.0 10.2 1 14
r 2.144251 9 8 ack 40 ------- 2 10.1 1.0 2 19
+ 2.144251 8 7 ack 40 ------- 2 10.1 1.0 2 19
- 2.144251 8 7 ack 40 ------- 2 10.1 1.0 2 19
r 2.151179 4 0 ack 40 ------- 4 10.0 0.0 1 16
+ 2.151179 0 4 tcp 1040 ------- 4 0.0 10.0 3 21
- 2.151179 0 4 tcp 1040 ------- 4 0.0 10.0 3 21
+ 2.151179 0 4 tcp 1040 ------- 4 0.0 10.0 4 22
- 2.152843 0 4 tcp 1040 ------- 4 0.0 10.0 4 22
r 2.165317 7 6 ack 40 ------- 2 10.1 1.0 1 18
+ 2.165317 6 5 ack 40 ------- 2 10.1 1.0 1 18
- 2.165317 6 5 ack 40 ------- 2 10.1 1.0 1 18
r 2.176384 10 9 ack 40 ------- 3 10.3 3.0 1 20
+ 2.176384 9 8 ack 40 ------- 3 10.3 3.0 1 20
- 2.176384 9 8 ack 40 ------- 3 10.3 3.0 1 20
r 2.184315 5 4 ack 40 ------- 4 10.0 0.0 2 17
+ 2.184315 4 0 ack 40 ------- 4 10.0 0.0 2 17
- 2.184315 4 0 ack 40 ------- 4 10.0 0.0 2 17
r 2.197451 8 7 ack 40 ------- 2 10.1 1.0 2 19
+ 2.197451 7 6 ack 40 ------- 2 10.1 1.0 2 19
- 2.197451 7 6 ack 40 ------- 2 10.1 1.0 2 19
r 2.202843 0 4 tcp 1040 ------- 4 0.0 10.0 3 21
+ 2.202843 4 5 tcp 1040 ------- 4 0.0 10.0 3 21
- 2.202843 4 5 tcp 1040 ------- 4 0.0 10.0 3 21
r 2.204507 0 4 tcp 1040 ------- 4 0.0 10.0 4 22
+ 2.204507 4 5 tcp 1040 ------- 4 0.0 10.0 4 22
- 2.204507 4 5 tcp 1040 ------- 4 0.0 10.0 4 22
r 2.208517 9 10 tcp 1040 ------- 3 3.0 10.3 2 13
+ 2.208517 10 9 ack 40 ------- 3 10.3 3.0 2 23
- 2.208517 10 9 ack 40 ------- 3 10.3 3.0 2 23
r 2.213984 8 9 tcp 1040 ------- 0 2.0 10.2 1 14
+ 2.213984 9 10 tcp 1040 ------- 0 2.0 10.2 1 14
- 2.213984 9 10 tcp 1040 ------- 0 2.0 10.2 1 14
r 2.217451 6 5 ack 40 ------- 2 10.1 1.0 1 18
+ 2.217451 5 4 ack 40 ------- 2 10.1 1.0 1 18
- 2.217451 5 4 ack 40 ------- 2 10.1 1.0 1 18
r 2.219451 7 8 tcp 1040 ------- 0 2.0 10.2 2 15
+ 2.219451 8 9 tcp 1040 ------- 0 2.0 10.2 2 15
- 2.219451 8 9 tcp 1040 ------- 0 2.0 10.2 2 15
r 2.227451 9 8 ack 40 ------- 3 10.3 3.0 1 20
+ 2.227451 8 7 ack 40 ------- 3 10.3 3.0 1 20
- 2.227451 8 7 ack 40 ------- 3 10.3 3.0 1 20
r 2.234379 4 0 ack 40 ------- 4 10.0 0.0 2 17
+ 2.234379 0 4 tcp 1040 ------- 4 0.0 10.0 5 24
- 2.234379 0 4 tcp 1040 ------- 4 0.0 10.0 5 24
+ 2.234379 0 4 tcp 1040 ------- 4 0.0 10.0 6 25
- 2.236043 0 4 tcp 1040 ------- 4 0.0 10.0 6 25
r 2.248517 7 6 ack 40 ------- 2 10.1 1.0 2 19
+ 2.248517 6 5 ack 40 ------- 2 10.1 1.0 2 19
- 2.248517 6 5 ack 40 ------- 2 10.1 1.0 2 19
r 2.254507 4 5 tcp 1040 ------- 4 0.0 10.0 3 21
+ 2.254507 5 6 tcp 1040 ------- 4 0.0 10.0 3 21
- 2.254507 5 6 tcp 1040 ------- 4 0.0 10.0 3 21
r 2.256171 4 5 tcp 1040 ------- 4 0.0 10.0 4 22
+ 2.256171 5 6 tcp 1040 ------- 4 0.0 10.0 4 22
r 2.259584 10 9 ack 40 ------- 3 10.3 3.0 2 23
+ 2.259584 9 8 ack 40 ------- 3 10.3 3.0 2 23
- 2.259584 9 8 ack 40 ------- 3 10.3 3.0 2 23
r 2.267515 5 4 ack 40 ------- 2 10.1 1.0 1 18
+ 2.267515 4 1 ack 40 ------- 2 10.1 1.0 1 18
- 2.267515 4 1 ack 40 ------- 2 10.1 1.0 1 18
r 2.280651 8 7 ack 40 ------- 3 10.3 3.0 1 20
+ 2.280651 7 6 ack 40 ------- 3 10.3 3.0 1 20
- 2.280651 7 6 ack 40 ------- 3 10.3 3.0 1 20
r 2.286043 0 4 tcp 1040 ------- 4 0.0 10.0 5 24
+ 2.286043 4 5 tcp 1040 ------- 4 0.0 10.0 5 24
- 2.286043 4 5 tcp 1040 ------- 4 0.0 10.0 5 24
r 2.287707 0 4 tcp 1040 ------- 4 0.0 10.0 6 25
+ 2.287707 4 5 tcp 1040 ------- 4 0.0 10.0 6 25
- 2.287707 4 5 tcp 1040 ------- 4 0.0 10.0 6 25
r 2.291717 9 10 tcp 1040 ------- 0 2.0 10.2 1 14
+ 2.291717 10 9 ack 40 ------- 0 10.2 2.0 1 26
- 2.291717 10 9 ack 40 ------- 0 10.2 2.0 1 26
r 2.297184 8 9 tcp 1040 ------- 0 2.0 10.2 2 15
+ 2.297184 9 10 tcp 1040 ------- 0 2.0 10.2 2 15
- 2.297184 9 10 tcp 1040 ------- 0 2.0 10.2 2 15
r 2.300651 6 5 ack 40 ------- 2 10.1 1.0 2 19
+ 2.300651 5 4 ack 40 ------- 2 10.1 1.0 2 19
- 2.300651 5 4 ack 40 ------- 2 10.1 1.0 2 19
- 2.309973 5 6 tcp 1040 ------- 4 0.0 10.0 4 22
r 2.310651 9 8 ack 40 ------- 3 10.3 3.0 2 23
+ 2.310651 8 7 ack 40 ------- 3 10.3 3.0 2 23
- 2.310651 8 7 ack 40 ------- 3 10.3 3.0 2 23
r 2.317579 4 1 ack 40 ------- 2 10.1 1.0 1 18
+ 2.317579 1 4 tcp 1040 ------- 2 1.0 10.1 3 27
- 2.317579 1 4 tcp 1040 ------- 2 1.0 10.1 3 27
+ 2.317579 1 4 tcp 1040 ------- 2 1.0 10.1 4 28
- 2.319243 1 4 tcp 1040 ------- 2 1.0 10.1 4 28
r 2.331717 7 6 ack 40 ------- 3 10.3 3.0 1 20
+ 2.331717 6 5 ack 40 ------- 3 10.3 3.0 1 20
- 2.331717 6 5 ack 40 ------- 3 10.3 3.0 1 20
r 2.337707 4 5 tcp 1040 ------- 4 0.0 10.0 5 24
+ 2.337707 5 6 tcp 1040 ------- 4 0.0 10.0 5 24
r 2.339371 4 5 tcp 1040 ------- 4 0.0 10.0 6 25
+ 2.339371 5 6 tcp 1040 ------- 4 0.0 10.0 6 25
r 2.342784 10 9 ack 40 ------- 0 10.2 2.0 1 26
+ 2.342784 9 8 ack 40 ------- 0 10.2 2.0 1 26
- 2.342784 9 8 ack 40 ------- 0 10.2 2.0 1 26
r 2.350715 5 4 ack 40 ------- 2 10.1 1.0 2 19
+ 2.350715 4 1 ack 40 ------- 2 10.1 1.0 2 19
- 2.350715 4 1 ack 40 ------- 2 10.1 1.0 2 19
r 2.359973 5 6 tcp 1040 ------- 4 0.0 10.0 3 21
+ 2.359973 6 7 tcp 1040 ------- 4 0.0 10.0 3 21
- 2.359973 6 7 tcp 1040 ------- 4 0.0 10.0 3 21
r 2.363851 8 7 ack 40 ------- 3 10.3 3.0 2 23
+ 2.363851 7 6 ack 40 ------- 3 10.3 3.0 2 23
- 2.363851 7 6 ack 40 ------- 3 10.3 3.0 2 23
- 2.36544 5 6 tcp 1040 ------- 4 0.0 10.0 5 24
r 2.369243 1 4 tcp 1040 ------- 2 1.0 10.1 3 27
+ 2.369243 4 5 tcp 1040 ------- 2 1.0 10.1 3 27
- 2.369243 4 5 tcp 1040 ------- 2 1.0 10.1 3 27
r 2.370907 1 4 tcp 1040 ------- 2 1.0 10.1 4 28
+ 2.370907 4 5 tcp 1040 ------- 2 1.0 10.1 4 28
- 2.370907 4 5 tcp 1040 ------- 2 1.0 10.1 4 28
r 2.374917 9 10 tcp 1040 ------- 0 2.0 10.2 2 15
+ 2.374917 10 9 ack 40 ------- 0 10.2 2.0 2 29
- 2.374917 10 9 ack 40 ------- 0 10.2 2.0 2 29
r 2.383851 6 5 ack 40 ------- 3 10.3 3.0 1 20
+ 2.383851 5 4 ack 40 ------- 3 10.3 3.0 1 20
- 2.383851 5 4 ack 40 ------- 3 10.3 3.0 1 20
r 2.393851 9 8 ack 40 ------- 0 10.2 2.0 1 26
+ 2.393851 8 7 ack 40 ------- 0 10.2 2.0 1 26
- 2.393851 8 7 ack 40 ------- 0 10.2 2.0 1 26
r 2.400779 4 1 ack 40 ------- 2 10.1 1.0 2 19
+ 2.400779 1 4 tcp 1040 ------- 2 1.0 10.1 5 30
- 2.400779 1 4 tcp 1040 ------- 2 1.0 10.1 5 30
+ 2.400779 1 4 tcp 1040 ------- 2 1.0 10.1 6 31
- 2.402443 1 4 tcp 1040 ------- 2 1.0 10.1 6 31
r 2.414917 7 6 ack 40 ------- 3 10.3 3.0 2 23
+ 2.414917 6 5 ack 40 ------- 3 10.3 3.0 2 23
- 2.414917 6 5 ack 40 ------- 3 10.3 3.0 2 23
r 2.41544 5 6 tcp 1040 ------- 4 0.0 10.0 4 22
+ 2.41544 6 7 tcp 1040 ------- 4 0.0 10.0 4 22
- 2.41544 6 7 tcp 1040 ------- 4 0.0 10.0 4 22
- 2.420907 5 6 tcp 1040 ------- 4 0.0 10.0 6 25
r 2.420907 4 5 tcp 1040 ------- 2 1.0 10.1 3 27
+ 2.420907 5 6 tcp 1040 ------- 2 1.0 10.1 3 27
r 2.422571 4 5 tcp 1040 ------- 2 1.0 10.1 4 28
+ 2.422571 5 6 tcp 1040 ------- 2 1.0 10.1 4 28
r 2.425984 10 9 ack 40 ------- 0 10.2 2.0 2 29
+ 2.425984 9 8 ack 40 ------- 0 10.2 2.0 2 29
- 2.425984 9 8 ack 40 ------- 0 10.2 2.0 2 29
r 2.433915 5 4 ack 40 ------- 3 10.3 3.0 1 20
+ 2.433915 4 3 ack 40 ------- 3 10.3 3.0 1 20
- 2.433915 4 3 ack 40 ------- 3 10.3 3.0 1 20
r 2.437707 6 7 tcp 1040 ------- 4 0.0 10.0 3 21
+ 2.437707 7 8 tcp 1040 ------- 4 0.0 10.0 3 21
- 2.437707 7 8 tcp 1040 ------- 4 0.0 10.0 3 21
r 2.447051 8 7 ack 40 ------- 0 10.2 2.0 1 26
+ 2.447051 7 6 ack 40 ------- 0 10.2 2.0 1 26
- 2.447051 7 6 ack 40 ------- 0 10.2 2.0 1 26
r 2.452443 1 4 tcp 1040 ------- 2 1.0 10.1 5 30
+ 2.452443 4 5 tcp 1040 ------- 2 1.0 10.1 5 30
- 2.452443 4 5 tcp 1040 ------- 2 1.0 10.1 5 30
r 2.454107 1 4 tcp 1040 ------- 2 1.0 10.1 6 31
+ 2.454107 4 5 tcp 1040 ------- 2 1.0 10.1 6 31
- 2.454107 4 5 tcp 1040 ------- 2 1.0 10.1 6 31
r 2.467051 6 5 ack 40 ------- 3 10.3 3.0 2 23
+ 2.467051 5 4 ack 40 ------- 3 10.3 3.0 2 23
- 2.467051 5 4 ack 40 ------- 3 10.3 3.0 2 23
r 2.470907 5 6 tcp 1040 ------- 4 0.0 10.0 5 24
+ 2.470907 6 7 tcp 1040 ------- 4 0.0 10.0 5 24
- 2.470907 6 7 tcp 1040 ------- 4 0.0 10.0 5 24
- 2.476373 5 6 tcp 1040 ------- 2 1.0 10.1 3 27
r 2.477051 9 8 ack 40 ------- 0 10.2 2.0 2 29
+ 2.477051 8 7 ack 40 ------- 0 10.2 2.0 2 29
- 2.477051 8 7 ack 40 ------- 0 10.2 2.0 2 29
r 2.483979 4 3 ack 40 ------- 3 10.3 3.0 1 20
+ 2.483979 3 4 tcp 1040 ------- 3 3.0 10.3 3 32
- 2.483979 3 4 tcp 1040 ------- 3 3.0 10.3 3 32
+ 2.483979 3 4 tcp 1040 ------- 3 3.0 10.3 4 33
- 2.485643 3 4 tcp 1040 ------- 3 3.0 10.3 4 33
r 2.493173 6 7 tcp 1040 ------- 4 0.0 10.0 4 22
+ 2.493173 7 8 tcp 1040 ------- 4 0.0 10.0 4 22
r 2.498117 7 6 ack 40 ------- 0 10.2 2.0 1 26
+ 2.498117 6 5 ack 40 ------- 0 10.2 2.0 1 26
- 2.498117 6 5 ack 40 ------- 0 10.2 2.0 1 26
r 2.504107 4 5 tcp 1040 ------- 2 1.0 10.1 5 30
+ 2.504107 5 6 tcp 1040 ------- 2 1.0 10.1 5 30
r 2.505771 4 5 tcp 1040 ------- 2 1.0 10.1 6 31
+ 2.505771 5 6 tcp 1040 ------- 2 1.0 10.1 6 31
r 2.517115 5 4 ack 40 ------- 3 10.3 3.0 2 23
+ 2.517115 4 3 ack 40 ------- 3 10.3 3.0 2 23
- 2.517115 4 3 ack 40 ------- 3 10.3 3.0 2 23
- 2.520907 7 8 tcp 1040 ------- 4 0.0 10.0 4 22
r 2.526373 5 6 tcp 1040 ------- 4 0.0 10.0 6 25
+ 2.526373 6 7 tcp 1040 ------- 4 0.0 10.0 6 25
- 2.526373 6 7 tcp 1040 ------- 4 0.0 10.0 6 25
r 2.530251 8 7 ack 40 ------- 0 10.2 2.0 2 29
+ 2.530251 7 6 ack 40 ------- 0 10.2 2.0 2 29
- 2.530251 7 6 ack 40 ------- 0 10.2 2.0 2 29
- 2.53184 5 6 tcp 1040 ------- 2 1.0 10.1 4 28
r 2.535643 3 4 tcp 1040 ------- 3 3.0 10.3 3 32
+ 2.535643 4 5 tcp 1040 ------- 3 3.0 10.3 3 32
- 2.535643 4 5 tcp 1040 ------- 3 3.0 10.3 3 32
r 2.537307 3 4 tcp 1040 ------- 3 3.0 10.3 4 33
+ 2.537307 4 5 tcp 1040 ------- 3 3.0 10.3 4 33
- 2.537307 4 5 tcp 1040 ------- 3 3.0 10.3 4 33
r 2.54864 6 7 tcp 1040 ------- 4 0.0 10.0 5 24
+ 2.54864 7 8 tcp 1040 ------- 4 0.0 10.0 5 24
r 2.550251 6 5 ack 40 ------- 0 10.2 2.0 1 26
+ 2.550251 5 4 ack 40 ------- 0 10.2 2.0 1 26
- 2.550251 5 4 ack 40 ------- 0 10.2 2.0 1 26
r 2.567179 4 3 ack 40 ------- 3 10.3 3.0 2 23
+ 2.567179 3 4 tcp 1040 ------- 3 3.0 10.3 5 34
- 2.567179 3 4 tcp 1040 ------- 3 3.0 10.3 5 34
+ 2.567179 3 4 tcp 1040 ------- 3 3.0 10.3 6 35
- 2.568843 3 4 tcp 1040 ------- 3 3.0 10.3 6 35
r 2.570907 7 8 tcp 1040 ------- 4 0.0 10.0 3 21
+ 2.570907 8 9 tcp 1040 ------- 4 0.0 10.0 3 21
- 2.570907 8 9 tcp 1040 ------- 4 0.0 10.0 3 21
r 2.581317 7 6 ack 40 ------- 0 10.2 2.0 2 29
+ 2.581317 6 5 ack 40 ------- 0 10.2 2.0 2 29
- 2.581317 6 5 ack 40 ------- 0 10.2 2.0 2 29
r 2.58184 5 6 tcp 1040 ------- 2 1.0 10.1 3 27
+ 2.58184 6 7 tcp 1040 ------- 2 1.0 10.1 3 27
- 2.58184 6 7 tcp 1040 ------- 2 1.0 10.1 3 27
r 2.587307 4 5 tcp 1040 ------- 3 3.0 10.3 3 32
+ 2.587307 5 6 tcp 1040 ------- 3 3.0 10.3 3 32
- 2.587307 5 6 tcp 1040 ------- 2 1.0 10.1 5 30
r 2.588971 4 5 tcp 1040 ------- 3 3.0 10.3 4 33
+ 2.588971 5 6 tcp 1040 ------- 3 3.0 10.3 4 33
r 2.600315 5 4 ack 40 ------- 0 10.2 2.0 1 26
+ 2.600315 4 2 ack 40 ------- 0 10.2 2.0 1 26
- 2.600315 4 2 ack 40 ------- 0 10.2 2.0 1 26
- 2.604107 7 8 tcp 1040 ------- 4 0.0 10.0 5 24
r 2.604107 6 7 tcp 1040 ------- 4 0.0 10.0 6 25
+ 2.604107 7 8 tcp 1040 ------- 4 0.0 10.0 6 25
r 2.618843 3 4 tcp 1040 ------- 3 3.0 10.3 5 34
+ 2.618843 4 5 tcp 1040 ------- 3 3.0 10.3 5 34
- 2.618843 4 5 tcp 1040 ------- 3 3.0 10.3 5 34
r 2.620507 3 4 tcp 1040 ------- 3 3.0 10.3 6 35
+ 2.620507 4 5 tcp 1040 ------- 3 3.0 10.3 6 35
- 2.620507 4 5 tcp 1040 ------- 3 3.0 10.3 6 35
r 2.633451 6 5 ack 40 ------- 0 10.2 2.0 2 29
+ 2.633451 5 4 ack 40 ------- 0 10.2 2.0 2 29
- 2.633451 5 4 ack 40 ------- 0 10.2 2.0 2 29
r 2.637307 5 6 tcp 1040 ------- 2 1.0 10.1 4 28
+ 2.637307 6 7 tcp 1040 ------- 2 1.0 10.1 4 28
- 2.637307 6 7 tcp 1040 ------- 2 1.0 10.1 4 28
- 2.642773 5 6 tcp 1040 ------- 2 1.0 10.1 6 31
r 2.64864 8 9 tcp 1040 ------- 4 0.0 10.0 3 21
+ 2.64864 9 10 tcp 1040 ------- 4 0.0 10.0 3 21
- 2.64864 9 10 tcp 1040 ------- 4 0.0 10.0 3 21
r 2.650379 4 2 ack 40 ------- 0 10.2 2.0 1 26
+ 2.650379 2 4 tcp 1040 ------- 0 2.0 10.2 3 36
- 2.650379 2 4 tcp 1040 ------- 0 2.0 10.2 3 36
+ 2.650379 2 4 tcp 1040 ------- 0 2.0 10.2 4 37
- 2.652043 2 4 tcp 1040 ------- 0 2.0 10.2 4 37
r 2.654107 7 8 tcp 1040 ------- 4 0.0 10.0 4 22
+ 2.654107 8 9 tcp 1040 ------- 4 0.0 10.0 4 22
- 2.654107 8 9 tcp 1040 ------- 4 0.0 10.0 4 22
r 2.659573 6 7 tcp 1040 ------- 2 1.0 10.1 3 27
+ 2.659573 7 8 tcp 1040 ------- 2 1.0 10.1 3 27
r 2.670507 4 5 tcp 1040 ------- 3 3.0 10.3 5 34
+ 2.670507 5 6 tcp 1040 ------- 3 3.0 10.3 5 34
r 2.672171 4 5 tcp 1040 ------- 3 3.0 10.3 6 35
+ 2.672171 5 6 tcp 1040 ------- 3 3.0 10.3 6 35
r 2.683515 5 4 ack 40 ------- 0 10.2 2.0 2 29
+ 2.683515 4 2 ack 40 ------- 0 10.2 2.0 2 29
- 2.683515 4 2 ack 40 ------- 0 10.2 2.0 2 29
- 2.687307 7 8 tcp 1040 ------- 4 0.0 10.0 6 25
r 2.692773 5 6 tcp 1040 ------- 2 1.0 10.1 5 30
+ 2.692773 6 7 tcp 1040 ------- 2 1.0 10.1 5 30