v 0 eval {set sim_annotation {Normal operation of <Sliding Window> with window size, 4}}
+ 0.1 0 2 tcp 40 ------- 0 0.0 4.0 0 0
- 0.1 0 2 tcp 40 ------- 0 0.0 4.0 0 0
+ 0.1 1 2 cbr 500 ------- 1 1.0 5.0 0 1
- 0.1 1 2 cbr 500 ------- 1 1.0 5.0 0 1
v 0.10000000000000001 eval {set sim_annotation {FTP starts at 0.1}}
v 0.10000000000000001 eval {set sim_annotation {CBR starts at 0.1}}
v 0.11 eval {set sim_annotation {Send Packet_0,1,2,3	: window size, 4}}
+ 0.15 1 2 cbr 500 ------- 1 1.0 5.0 1 2
- 0.15 1 2 cbr 500 ------- 1 1.0 5.0 1 2
r 0.15064 0 2 tcp 40 ------- 0 0.0 4.0 0 0
+ 0.15064 2 3 tcp 40 ------- 0 0.0 4.0 0 0
- 0.15064 2 3 tcp 40 ------- 0 0.0 4.0 0 0
r 0.158 1 2 cbr 500 ------- 1 1.0 5.0 0 1
+ 0.158 2 3 cbr 500 ------- 1 1.0 5.0 0 1
- 0.158 2 3 cbr 500 ------- 1 1.0 5.0 0 1
+ 0.2 1 2 cbr 500 ------- 1 1.0 5.0 2 3
- 0.2 1 2 cbr 500 ------- 1 1.0 5.0 2 3
r 0.20128 2 3 tcp 40 ------- 0 0.0 4.0 0 0
+ 0.20128 3 4 tcp 40 ------- 0 0.0 4.0 0 0
- 0.20128 3 4 tcp 40 ------- 0 0.0 4.0 0 0
r 0.208 1 2 cbr 500 ------- 1 1.0 5.0 1 2
+ 0.208 2 3 cbr 500 ------- 1 1.0 5.0 1 2
- 0.208 2 3 cbr 500 ------- 1 1.0 5.0 1 2
r 0.216 2 3 cbr 500 ------- 1 1.0 5.0 0 1
+ 0.216 3 5 cbr 500 ------- 1 1.0 5.0 0 1
- 0.216 3 5 cbr 500 ------- 1 1.0 5.0 0 1
+ 0.25 1 2 cbr 500 ------- 1 1.0 5.0 3 4
- 0.25 1 2 cbr 500 ------- 1 1.0 5.0 3 4
r 0.25192 3 4 tcp 40 ------- 0 0.0 4.0 0 0
+ 0.25192 4 3 ack 40 ------- 0 4.0 0.0 0 5
- 0.25192 4 3 ack 40 ------- 0 4.0 0.0 0 5
r 0.258 1 2 cbr 500 ------- 1 1.0 5.0 2 3
+ 0.258 2 3 cbr 500 ------- 1 1.0 5.0 2 3
- 0.258 2 3 cbr 500 ------- 1 1.0 5.0 2 3
r 0.266 2 3 cbr 500 ------- 1 1.0 5.0 1 2
+ 0.266 3 5 cbr 500 ------- 1 1.0 5.0 1 2
- 0.266 3 5 cbr 500 ------- 1 1.0 5.0 1 2
r 0.274 3 5 cbr 500 ------- 1 1.0 5.0 0 1
+ 0.3 1 2 cbr 500 ------- 1 1.0 5.0 4 6
- 0.3 1 2 cbr 500 ------- 1 1.0 5.0 4 6
r 0.30256 4 3 ack 40 ------- 0 4.0 0.0 0 5
+ 0.30256 3 2 ack 40 ------- 0 4.0 0.0 0 5
- 0.30256 3 2 ack 40 ------- 0 4.0 0.0 0 5
r 0.308 1 2 cbr 500 ------- 1 1.0 5.0 3 4
+ 0.308 2 3 cbr 500 ------- 1 1.0 5.0 3 4
- 0.308 2 3 cbr 500 ------- 1 1.0 5.0 3 4
r 0.316 2 3 cbr 500 ------- 1 1.0 5.0 2 3
+ 0.316 3 5 cbr 500 ------- 1 1.0 5.0 2 3
- 0.316 3 5 cbr 500 ------- 1 1.0 5.0 2 3
v 0.32000000000000001 eval {set sim_annotation {Ack_0,1,2,3}}
r 0.324 3 5 cbr 500 ------- 1 1.0 5.0 1 2
+ 0.35 1 2 cbr 500 ------- 1 1.0 5.0 5 7
- 0.35 1 2 cbr 500 ------- 1 1.0 5.0 5 7
r 0.3532 3 2 ack 40 ------- 0 4.0 0.0 0 5
+ 0.3532 2 0 ack 40 ------- 0 4.0 0.0 0 5
- 0.3532 2 0 ack 40 ------- 0 4.0 0.0 0 5
r 0.358 1 2 cbr 500 ------- 1 1.0 5.0 4 6
+ 0.358 2 3 cbr 500 ------- 1 1.0 5.0 4 6
- 0.358 2 3 cbr 500 ------- 1 1.0 5.0 4 6
r 0.366 2 3 cbr 500 ------- 1 1.0 5.0 3 4
+ 0.366 3 5 cbr 500 ------- 1 1.0 5.0 3 4
- 0.366 3 5 cbr 500 ------- 1 1.0 5.0 3 4
r 0.374 3 5 cbr 500 ------- 1 1.0 5.0 2 3
+ 0.4 1 2 cbr 500 ------- 1 1.0 5.0 6 8
- 0.4 1 2 cbr 500 ------- 1 1.0 5.0 6 8
r 0.40384 2 0 ack 40 ------- 0 4.0 0.0 0 5
+ 0.40384 0 2 tcp 1040 ------- 0 0.0 4.0 1 9
- 0.40384 0 2 tcp 1040 ------- 0 0.0 4.0 1 9
+ 0.40384 0 2 tcp 1040 ------- 0 0.0 4.0 2 10
+ 0.40384 0 2 tcp 1040 ------- 0 0.0 4.0 3 11
+ 0.40384 0 2 tcp 1040 ------- 0 0.0 4.0 4 12
r 0.408 1 2 cbr 500 ------- 1 1.0 5.0 5 7
+ 0.408 2 3 cbr 500 ------- 1 1.0 5.0 5 7
- 0.408 2 3 cbr 500 ------- 1 1.0 5.0 5 7
r 0.416 2 3 cbr 500 ------- 1 1.0 5.0 4 6
+ 0.416 3 5 cbr 500 ------- 1 1.0 5.0 4 6
- 0.416 3 5 cbr 500 ------- 1 1.0 5.0 4 6
- 0.42048 0 2 tcp 1040 ------- 0 0.0 4.0 2 10
r 0.424 3 5 cbr 500 ------- 1 1.0 5.0 3 4
- 0.43712 0 2 tcp 1040 ------- 0 0.0 4.0 3 11
+ 0.45 1 2 cbr 500 ------- 1 1.0 5.0 7 13
- 0.45 1 2 cbr 500 ------- 1 1.0 5.0 7 13
- 0.45376 0 2 tcp 1040 ------- 0 0.0 4.0 4 12
r 0.458 1 2 cbr 500 ------- 1 1.0 5.0 6 8
+ 0.458 2 3 cbr 500 ------- 1 1.0 5.0 6 8
- 0.458 2 3 cbr 500 ------- 1 1.0 5.0 6 8
v 0.46000000000000002 eval {set sim_annotation {Send Packet_4,5,6,7	: window size, 4}}
r 0.466 2 3 cbr 500 ------- 1 1.0 5.0 5 7
+ 0.466 3 5 cbr 500 ------- 1 1.0 5.0 5 7
- 0.466 3 5 cbr 500 ------- 1 1.0 5.0 5 7
r 0.47048 0 2 tcp 1040 ------- 0 0.0 4.0 1 9
+ 0.47048 2 3 tcp 1040 ------- 0 0.0 4.0 1 9
- 0.47048 2 3 tcp 1040 ------- 0 0.0 4.0 1 9
r 0.474 3 5 cbr 500 ------- 1 1.0 5.0 4 6
r 0.48712 0 2 tcp 1040 ------- 0 0.0 4.0 2 10
+ 0.48712 2 3 tcp 1040 ------- 0 0.0 4.0 2 10
- 0.48712 2 3 tcp 1040 ------- 0 0.0 4.0 2 10
+ 0.5 1 2 cbr 500 ------- 1 1.0 5.0 8 14
- 0.5 1 2 cbr 500 ------- 1 1.0 5.0 8 14
r 0.50376 0 2 tcp 1040 ------- 0 0.0 4.0 3 11
+ 0.50376 2 3 tcp 1040 ------- 0 0.0 4.0 3 11
- 0.50376 2 3 tcp 1040 ------- 0 0.0 4.0 3 11
r 0.508 1 2 cbr 500 ------- 1 1.0 5.0 7 13
+ 0.508 2 3 cbr 500 ------- 1 1.0 5.0 7 13
r 0.516 2 3 cbr 500 ------- 1 1.0 5.0 6 8
+ 0.516 3 5 cbr 500 ------- 1 1.0 5.0 6 8
- 0.516 3 5 cbr 500 ------- 1 1.0 5.0 6 8
r 0.5204 0 2 tcp 1040 ------- 0 0.0 4.0 4 12
+ 0.5204 2 3 tcp 1040 ------- 0 0.0 4.0 4 12
- 0.5204 2 3 cbr 500 ------- 1 1.0 5.0 7 13
r 0.524 3 5 cbr 500 ------- 1 1.0 5.0 5 7
- 0.5284 2 3 tcp 1040 ------- 0 0.0 4.0 4 12
r 0.53712 2 3 tcp 1040 ------- 0 0.0 4.0 1 9
+ 0.53712 3 4 tcp 1040 ------- 0 0.0 4.0 1 9
- 0.53712 3 4 tcp 1040 ------- 0 0.0 4.0 1 9
+ 0.55 1 2 cbr 500 ------- 1 1.0 5.0 9 15
- 0.55 1 2 cbr 500 ------- 1 1.0 5.0 9 15
r 0.55376 2 3 tcp 1040 ------- 0 0.0 4.0 2 10
+ 0.55376 3 4 tcp 1040 ------- 0 0.0 4.0 2 10
- 0.55376 3 4 tcp 1040 ------- 0 0.0 4.0 2 10
r 0.558 1 2 cbr 500 ------- 1 1.0 5.0 8 14
+ 0.558 2 3 cbr 500 ------- 1 1.0 5.0 8 14
- 0.558 2 3 cbr 500 ------- 1 1.0 5.0 8 14
r 0.5704 2 3 tcp 1040 ------- 0 0.0 4.0 3 11
+ 0.5704 3 4 tcp 1040 ------- 0 0.0 4.0 3 11
- 0.5704 3 4 tcp 1040 ------- 0 0.0 4.0 3 11
r 0.574 3 5 cbr 500 ------- 1 1.0 5.0 6 8
r 0.5784 2 3 cbr 500 ------- 1 1.0 5.0 7 13
+ 0.5784 3 5 cbr 500 ------- 1 1.0 5.0 7 13
- 0.5784 3 5 cbr 500 ------- 1 1.0 5.0 7 13
r 0.59504 2 3 tcp 1040 ------- 0 0.0 4.0 4 12
+ 0.59504 3 4 tcp 1040 ------- 0 0.0 4.0 4 12
- 0.59504 3 4 tcp 1040 ------- 0 0.0 4.0 4 12
+ 0.6 1 2 cbr 500 ------- 1 1.0 5.0 10 16
- 0.6 1 2 cbr 500 ------- 1 1.0 5.0 10 16
r 0.60376 3 4 tcp 1040 ------- 0 0.0 4.0 1 9
+ 0.60376 4 3 ack 40 ------- 0 4.0 0.0 1 17
- 0.60376 4 3 ack 40 ------- 0 4.0 0.0 1 17
r 0.608 1 2 cbr 500 ------- 1 1.0 5.0 9 15
+ 0.608 2 3 cbr 500 ------- 1 1.0 5.0 9 15
- 0.608 2 3 cbr 500 ------- 1 1.0 5.0 9 15
r 0.616 2 3 cbr 500 ------- 1 1.0 5.0 8 14
+ 0.616 3 5 cbr 500 ------- 1 1.0 5.0 8 14
- 0.616 3 5 cbr 500 ------- 1 1.0 5.0 8 14
r 0.6204 3 4 tcp 1040 ------- 0 0.0 4.0 2 10
+ 0.6204 4 3 ack 40 ------- 0 4.0 0.0 2 18
- 0.6204 4 3 ack 40 ------- 0 4.0 0.0 2 18
r 0.6364 3 5 cbr 500 ------- 1 1.0 5.0 7 13
r 0.63704 3 4 tcp 1040 ------- 0 0.0 4.0 3 11
+ 0.63704 4 3 ack 40 ------- 0 4.0 0.0 3 19
- 0.63704 4 3 ack 40 ------- 0 4.0 0.0 3 19
+ 0.65 1 2 cbr 500 ------- 1 1.0 5.0 11 20
- 0.65 1 2 cbr 500 ------- 1 1.0 5.0 11 20
r 0.6544 4 3 ack 40 ------- 0 4.0 0.0 1 17
+ 0.6544 3 2 ack 40 ------- 0 4.0 0.0 1 17
- 0.6544 3 2 ack 40 ------- 0 4.0 0.0 1 17
r 0.658 1 2 cbr 500 ------- 1 1.0 5.0 10 16
+ 0.658 2 3 cbr 500 ------- 1 1.0 5.0 10 16
- 0.658 2 3 cbr 500 ------- 1 1.0 5.0 10 16
v 0.66000000000000003 eval {set sim_annotation {Ack_4,5,6,7}}
r 0.66168 3 4 tcp 1040 ------- 0 0.0 4.0 4 12
+ 0.66168 4 3 ack 40 ------- 0 4.0 0.0 4 21
- 0.66168 4 3 ack 40 ------- 0 4.0 0.0 4 21
r 0.666 2 3 cbr 500 ------- 1 1.0 5.0 9 15
+ 0.666 3 5 cbr 500 ------- 1 1.0 5.0 9 15
- 0.666 3 5 cbr 500 ------- 1 1.0 5.0 9 15
r 0.67104 4 3 ack 40 ------- 0 4.0 0.0 2 18
+ 0.67104 3 2 ack 40 ------- 0 4.0 0.0 2 18
- 0.67104 3 2 ack 40 ------- 0 4.0 0.0 2 18
r 0.674 3 5 cbr 500 ------- 1 1.0 5.0 8 14
r 0.68768 4 3 ack 40 ------- 0 4.0 0.0 3 19
+ 0.68768 3 2 ack 40 ------- 0 4.0 0.0 3 19
- 0.68768 3 2 ack 40 ------- 0 4.0 0.0 3 19
+ 0.7 1 2 cbr 500 ------- 1 1.0 5.0 12 22
- 0.7 1 2 cbr 500 ------- 1 1.0 5.0 12 22
r 0.70504 3 2 ack 40 ------- 0 4.0 0.0 1 17
+ 0.70504 2 0 ack 40 ------- 0 4.0 0.0 1 17
- 0.70504 2 0 ack 40 ------- 0 4.0 0.0 1 17
r 0.708 1 2 cbr 500 ------- 1 1.0 5.0 11 20
+ 0.708 2 3 cbr 500 ------- 1 1.0 5.0 11 20
- 0.708 2 3 cbr 500 ------- 1 1.0 5.0 11 20
r 0.71232 4 3 ack 40 ------- 0 4.0 0.0 4 21
+ 0.71232 3 2 ack 40 ------- 0 4.0 0.0 4 21
- 0.71232 3 2 ack 40 ------- 0 4.0 0.0 4 21
r 0.716 2 3 cbr 500 ------- 1 1.0 5.0 10 16
+ 0.716 3 5 cbr 500 ------- 1 1.0 5.0 10 16
- 0.716 3 5 cbr 500 ------- 1 1.0 5.0 10 16
r 0.72168 3 2 ack 40 ------- 0 4.0 0.0 2 18
+ 0.72168 2 0 ack 40 ------- 0 4.0 0.0 2 18
- 0.72168 2 0 ack 40 ------- 0 4.0 0.0 2 18
r 0.724 3 5 cbr 500 ------- 1 1.0 5.0 9 15
r 0.73832 3 2 ack 40 ------- 0 4.0 0.0 3 19
+ 0.73832 2 0 ack 40 ------- 0 4.0 0.0 3 19
- 0.73832 2 0 ack 40 ------- 0 4.0 0.0 3 19
+ 0.75 1 2 cbr 500 ------- 1 1.0 5.0 13 23
- 0.75 1 2 cbr 500 ------- 1 1.0 5.0 13 23
r 0.75568 2 0 ack 40 ------- 0 4.0 0.0 1 17
+ 0.75568 0 2 tcp 1040 ------- 0 0.0 4.0 5 24
- 0.75568 0 2 tcp 1040 ------- 0 0.0 4.0 5 24
r 0.758 1 2 cbr 500 ------- 1 1.0 5.0 12 22
+ 0.758 2 3 cbr 500 ------- 1 1.0 5.0 12 22
- 0.758 2 3 cbr 500 ------- 1 1.0 5.0 12 22
r 0.76296 3 2 ack 40 ------- 0 4.0 0.0 4 21
+ 0.76296 2 0 ack 40 ------- 0 4.0 0.0 4 21
- 0.76296 2 0 ack 40 ------- 0 4.0 0.0 4 21
r 0.766 2 3 cbr 500 ------- 1 1.0 5.0 11 20
+ 0.766 3 5 cbr 500 ------- 1 1.0 5.0 11 20
- 0.766 3 5 cbr 500 ------- 1 1.0 5.0 11 20
r 0.77232 2 0 ack 40 ------- 0 4.0 0.0 2 18
+ 0.77232 0 2 tcp 1040 ------- 0 0.0 4.0 6 25
- 0.77232 0 2 tcp 1040 ------- 0 0.0 4.0 6 25
r 0.774 3 5 cbr 500 ------- 1 1.0 5.0 10 16
r 0.78896 2 0 ack 40 ------- 0 4.0 0.0 3 19
+ 0.78896 0 2 tcp 1040 ------- 0 0.0 4.0 7 26
- 0.78896 0 2 tcp 1040 ------- 0 0.0 4.0 7 26
+ 0.8 1 2 cbr 500 ------- 1 1.0 5.0 14 27
- 0.8 1 2 cbr 500 ------- 1 1.0 5.0 14 27
r 0.808 1 2 cbr 500 ------- 1 1.0 5.0 13 23
+ 0.808 2 3 cbr 500 ------- 1 1.0 5.0 13 23
- 0.808 2 3 cbr 500 ------- 1 1.0 5.0 13 23
v 0.81000000000000005 eval {set sim_annotation {Send Packet_8,9,10,11   : window size, 4}}
r 0.8136 2 0 ack 40 ------- 0 4.0 0.0 4 21
+ 0.8136 0 2 tcp 1040 ------- 0 0.0 4.0 8 28
- 0.8136 0 2 tcp 1040 ------- 0 0.0 4.0 8 28
r 0.816 2 3 cbr 500 ------- 1 1.0 5.0 12 22
+ 0.816 3 5 cbr 500 ------- 1 1.0 5.0 12 22
- 0.816 3 5 cbr 500 ------- 1 1.0 5.0 12 22
r 0.82232 0 2 tcp 1040 ------- 0 0.0 4.0 5 24
+ 0.82232 2 3 tcp 1040 ------- 0 0.0 4.0 5 24
- 0.82232 2 3 tcp 1040 ------- 0 0.0 4.0 5 24
r 0.824 3 5 cbr 500 ------- 1 1.0 5.0 11 20
r 0.83896 0 2 tcp 1040 ------- 0 0.0 4.0 6 25
+ 0.83896 2 3 tcp 1040 ------- 0 0.0 4.0 6 25
- 0.83896 2 3 tcp 1040 ------- 0 0.0 4.0 6 25
+ 0.85 1 2 cbr 500 ------- 1 1.0 5.0 15 29
- 0.85 1 2 cbr 500 ------- 1 1.0 5.0 15 29
r 0.8556 0 2 tcp 1040 ------- 0 0.0 4.0 7 26
+ 0.8556 2 3 tcp 1040 ------- 0 0.0 4.0 7 26
- 0.8556 2 3 tcp 1040 ------- 0 0.0 4.0 7 26
r 0.858 1 2 cbr 500 ------- 1 1.0 5.0 14 27
+ 0.858 2 3 cbr 500 ------- 1 1.0 5.0 14 27
r 0.866 2 3 cbr 500 ------- 1 1.0 5.0 13 23
+ 0.866 3 5 cbr 500 ------- 1 1.0 5.0 13 23
- 0.866 3 5 cbr 500 ------- 1 1.0 5.0 13 23
- 0.87224 2 3 cbr 500 ------- 1 1.0 5.0 14 27
r 0.874 3 5 cbr 500 ------- 1 1.0 5.0 12 22
r 0.88024 0 2 tcp 1040 ------- 0 0.0 4.0 8 28
+ 0.88024 2 3 tcp 1040 ------- 0 0.0 4.0 8 28
- 0.88024 2 3 tcp 1040 ------- 0 0.0 4.0 8 28
r 0.88896 2 3 tcp 1040 ------- 0 0.0 4.0 5 24
+ 0.88896 3 4 tcp 1040 ------- 0 0.0 4.0 5 24
- 0.88896 3 4 tcp 1040 ------- 0 0.0 4.0 5 24
+ 0.9 1 2 cbr 500 ------- 1 1.0 5.0 16 30
- 0.9 1 2 cbr 500 ------- 1 1.0 5.0 16 30
r 0.9056 2 3 tcp 1040 ------- 0 0.0 4.0 6 25
+ 0.9056 3 4 tcp 1040 ------- 0 0.0 4.0 6 25
- 0.9056 3 4 tcp 1040 ------- 0 0.0 4.0 6 25
r 0.908 1 2 cbr 500 ------- 1 1.0 5.0 15 29
+ 0.908 2 3 cbr 500 ------- 1 1.0 5.0 15 29
- 0.908 2 3 cbr 500 ------- 1 1.0 5.0 15 29
r 0.92224 2 3 tcp 1040 ------- 0 0.0 4.0 7 26
+ 0.92224 3 4 tcp 1040 ------- 0 0.0 4.0 7 26
- 0.92224 3 4 tcp 1040 ------- 0 0.0 4.0 7 26
r 0.924 3 5 cbr 500 ------- 1 1.0 5.0 13 23
r 0.93024 2 3 cbr 500 ------- 1 1.0 5.0 14 27
+ 0.93024 3 5 cbr 500 ------- 1 1.0 5.0 14 27
- 0.93024 3 5 cbr 500 ------- 1 1.0 5.0 14 27
r 0.94688 2 3 tcp 1040 ------- 0 0.0 4.0 8 28
+ 0.94688 3 4 tcp 1040 ------- 0 0.0 4.0 8 28
- 0.94688 3 4 tcp 1040 ------- 0 0.0 4.0 8 28
+ 0.95 1 2 cbr 500 ------- 1 1.0 5.0 17 31
- 0.95 1 2 cbr 500 ------- 1 1.0 5.0 17 31
r 0.9556 3 4 tcp 1040 ------- 0 0.0 4.0 5 24
+ 0.9556 4 3 ack 40 ------- 0 4.0 0.0 5 32
- 0.9556 4 3 ack 40 ------- 0 4.0 0.0 5 32
r 0.958 1 2 cbr 500 ------- 1 1.0 5.0 16 30
+ 0.958 2 3 cbr 500 ------- 1 1.0 5.0 16 30
- 0.958 2 3 cbr 500 ------- 1 1.0 5.0 16 30
r 0.966 2 3 cbr 500 ------- 1 1.0 5.0 15 29
+ 0.966 3 5 cbr 500 ------- 1 1.0 5.0 15 29
- 0.966 3 5 cbr 500 ------- 1 1.0 5.0 15 29
r 0.97224 3 4 tcp 1040 ------- 0 0.0 4.0 6 25
+ 0.97224 4 3 ack 40 ------- 0 4.0 0.0 6 33
- 0.97224 4 3 ack 40 ------- 0 4.0 0.0 6 33
r 0.98824 3 5 cbr 500 ------- 1 1.0 5.0 14 27
r 0.98888 3 4 tcp 1040 ------- 0 0.0 4.0 7 26
+ 0.98888 4 3 ack 40 ------- 0 4.0 0.0 7 34
- 0.98888 4 3 ack 40 ------- 0 4.0 0.0 7 34
v 1 eval {set sim_annotation {Ack_8,9,10,11}}
+ 1 1 2 cbr 500 ------- 1 1.0 5.0 18 35
- 1 1 2 cbr 500 ------- 1 1.0 5.0 18 35
r 1.00624 4 3 ack 40 ------- 0 4.0 0.0 5 32
+ 1.00624 3 2 ack 40 ------- 0 4.0 0.0 5 32
- 1.00624 3 2 ack 40 ------- 0 4.0 0.0 5 32
r 1.008 1 2 cbr 500 ------- 1 1.0 5.0 17 31
+ 1.008 2 3 cbr 500 ------- 1 1.0 5.0 17 31
- 1.008 2 3 cbr 500 ------- 1 1.0 5.0 17 31
r 1.01352 3 4 tcp 1040 ------- 0 0.0 4.0 8 28
+ 1.01352 4 3 ack 40 ------- 0 4.0 0.0 8 36
- 1.01352 4 3 ack 40 ------- 0 4.0 0.0 8 36
r 1.016 2 3 cbr 500 ------- 1 1.0 5.0 16 30
+ 1.016 3 5 cbr 500 ------- 1 1.0 5.0 16 30
- 1.016 3 5 cbr 500 ------- 1 1.0 5.0 16 30
r 1.02288 4 3 ack 40 ------- 0 4.0 0.0 6 33
+ 1.02288 3 2 ack 40 ------- 0 4.0 0.0 6 33
- 1.02288 3 2 ack 40 ------- 0 4.0 0.0 6 33
r 1.024 3 5 cbr 500 ------- 1 1.0 5.0 15 29
r 1.03952 4 3 ack 40 ------- 0 4.0 0.0 7 34
+ 1.03952 3 2 ack 40 ------- 0 4.0 0.0 7 34
- 1.03952 3 2 ack 40 ------- 0 4.0 0.0 7 34
+ 1.05 1 2 cbr 500 ------- 1 1.0 5.0 19 37
- 1.05 1 2 cbr 500 ------- 1 1.0 5.0 19 37
r 1.05688 3 2 ack 40 ------- 0 4.0 0.0 5 32
+ 1.05688 2 0 ack 40 ------- 0 4.0 0.0 5 32
- 1.05688 2 0 ack 40 ------- 0 4.0 0.0 5 32
r 1.058 1 2 cbr 500 ------- 1 1.0 5.0 18 35
+ 1.058 2 3 cbr 500 ------- 1 1.0 5.0 18 35
- 1.058 2 3 cbr 500 ------- 1 1.0 5.0 18 35
r 1.06416 4 3 ack 40 ------- 0 4.0 0.0 8 36
+ 1.06416 3 2 ack 40 ------- 0 4.0 0.0 8 36
- 1.06416 3 2 ack 40 ------- 0 4.0 0.0 8 36
r 1.066 2 3 cbr 500 ------- 1 1.0 5.0 17 31
+ 1.066 3 5 cbr 500 ------- 1 1.0 5.0 17 31
- 1.066 3 5 cbr 500 ------- 1 1.0 5.0 17 31
r 1.07352 3 2 ack 40 ------- 0 4.0 0.0 6 33
+ 1.07352 2 0 ack 40 ------- 0 4.0 0.0 6 33
- 1.07352 2 0 ack 40 ------- 0 4.0 0.0 6 33
r 1.074 3 5 cbr 500 ------- 1 1.0 5.0 16 30
r 1.09016 3 2 ack 40 ------- 0 4.0 0.0 7 34
+ 1.09016 2 0 ack 40 ------- 0 4.0 0.0 7 34
- 1.09016 2 0 ack 40 ------- 0 4.0 0.0 7 34
+ 1.1 1 2 cbr 500 ------- 1 1.0 5.0 20 38
- 1.1 1 2 cbr 500 ------- 1 1.0 5.0 20 38
r 1.10752 2 0 ack 40 ------- 0 4.0 0.0 5 32
+ 1.10752 0 2 tcp 1040 ------- 0 0.0 4.0 9 39
- 1.10752 0 2 tcp 1040 ------- 0 0.0 4.0 9 39
r 1.108 1 2 cbr 500 ------- 1 1.0 5.0 19 37
+ 1.108 2 3 cbr 500 ------- 1 1.0 5.0 19 37
- 1.108 2 3 cbr 500 ------- 1 1.0 5.0 19 37
r 1.1148 3 2 ack 40 ------- 0 4.0 0.0 8 36
+ 1.1148 2 0 ack 40 ------- 0 4.0 0.0 8 36
- 1.1148 2 0 ack 40 ------- 0 4.0 0.0 8 36
r 1.116 2 3 cbr 500 ------- 1 1.0 5.0 18 35
+ 1.116 3 5 cbr 500 ------- 1 1.0 5.0 18 35
- 1.116 3 5 cbr 500 ------- 1 1.0 5.0 18 35
r 1.124 3 5 cbr 500 ------- 1 1.0 5.0 17 31
r 1.12416 2 0 ack 40 ------- 0 4.0 0.0 6 33
+ 1.12416 0 2 tcp 1040 ------- 0 0.0 4.0 10 40
- 1.12416 0 2 tcp 1040 ------- 0 0.0 4.0 10 40
r 1.1408 2 0 ack 40 ------- 0 4.0 0.0 7 34
+ 1.1408 0 2 tcp 1040 ------- 0 0.0 4.0 11 41
- 1.1408 0 2 tcp 1040 ------- 0 0.0 4.0 11 41
+ 1.15 1 2 cbr 500 ------- 1 1.0 5.0 21 42
- 1.15 1 2 cbr 500 ------- 1 1.0 5.0 21 42
r 1.158 1 2 cbr 500 ------- 1 1.0 5.0 20 38
+ 1.158 2 3 cbr 500 ------- 1 1.0 5.0 20 38
- 1.158 2 3 cbr 500 ------- 1 1.0 5.0 20 38
v 1.1599999999999999 eval {set sim_annotation {Send Packet_12,13,14,15  : window size, 4}}
r 1.16544 2 0 ack 40 ------- 0 4.0 0.0 8 36
+ 1.16544 0 2 tcp 1040 ------- 0 0.0 4.0 12 43
- 1.16544 0 2 tcp 1040 ------- 0 0.0 4.0 12 43
r 1.166 2 3 cbr 500 ------- 1 1.0 5.0 19 37
+ 1.166 3 5 cbr 500 ------- 1 1.0 5.0 19 37
- 1.166 3 5 cbr 500 ------- 1 1.0 5.0 19 37
r 1.174 3 5 cbr 500 ------- 1 1.0 5.0 18 35
r 1.17416 0 2 tcp 1040 ------- 0 0.0 4.0 9 39
+ 1.17416 2 3 tcp 1040 ------- 0 0.0 4.0 9 39
- 1.17416 2 3 tcp 1040 ------- 0 0.0 4.0 9 39
r 1.1908 0 2 tcp 1040 ------- 0 0.0 4.0 10 40
+ 1.1908 2 3 tcp 1040 ------- 0 0.0 4.0 10 40
- 1.1908 2 3 tcp 1040 ------- 0 0.0 4.0 10 40
+ 1.2 1 2 cbr 500 ------- 1 1.0 5.0 22 44
- 1.2 1 2 cbr 500 ------- 1 1.0 5.0 22 44
r 1.20744 0 2 tcp 1040 ------- 0 0.0 4.0 11 41
+ 1.20744 2 3 tcp 1040 ------- 0 0.0 4.0 11 41
- 1.20744 2 3 tcp 1040 ------- 0 0.0 4.0 11 41
r 1.208 1 2 cbr 500 ------- 1 1.0 5.0 21 42
+ 1.208 2 3 cbr 500 ------- 1 1.0 5.0 21 42
r 1.216 2 3 cbr 500 ------- 1 1.0 5.0 20 38
+ 1.216 3 5 cbr 500 ------- 1 1.0 5.0 20 38
- 1.216 3 5 cbr 500 ------- 1 1.0 5.0 20 38
r 1.224 3 5 cbr 500 ------- 1 1.0 5.0 19 37
- 1.22408 2 3 cbr 500 ------- 1 1.0 5.0 21 42
r 1.23208 0 2 tcp 1040 ------- 0 0.0 4.0 12 43
+ 1.23208 2 3 tcp 1040 ------- 0 0.0 4.0 12 43
- 1.23208 2 3 tcp 1040 ------- 0 0.0 4.0 12 43
r 1.2408 2 3 tcp 1040 ------- 0 0.0 4.0 9 39
+ 1.2408 3 4 tcp 1040 ------- 0 0.0 4.0 9 39
- 1.2408 3 4 tcp 1040 ------- 0 0.0 4.0 9 39
+ 1.25 1 2 cbr 500 ------- 1 1.0 5.0 23 45
- 1.25 1 2 cbr 500 ------- 1 1.0 5.0 23 45
r 1.25744 2 3 tcp 1040 ------- 0 0.0 4.0 10 40
+ 1.25744 3 4 tcp 1040 ------- 0 0.0 4.0 10 40
- 1.25744 3 4 tcp 1040 ------- 0 0.0 4.0 10 40
r 1.258 1 2 cbr 500 ------- 1 1.0 5.0 22 44
+ 1.258 2 3 cbr 500 ------- 1 1.0 5.0 22 44
- 1.258 2 3 cbr 500 ------- 1 1.0 5.0 22 44
r 1.274 3 5 cbr 500 ------- 1 1.0 5.0 20 38
r 1.27408 2 3 tcp 1040 ------- 0 0.0 4.0 11 41
+ 1.27408 3 4 tcp 1040 ------- 0 0.0 4.0 11 41
- 1.27408 3 4 tcp 1040 ------- 0 0.0 4.0 11 41
r 1.28208 2 3 cbr 500 ------- 1 1.0 5.0 21 42
+ 1.28208 3 5 cbr 500 ------- 1 1.0 5.0 21 42
- 1.28208 3 5 cbr 500 ------- 1 1.0 5.0 21 42
r 1.29872 2 3 tcp 1040 ------- 0 0.0 4.0 12 43
+ 1.29872 3 4 tcp 1040 ------- 0 0.0 4.0 12 43
- 1.29872 3 4 tcp 1040 ------- 0 0.0 4.0 12 43
+ 1.3 1 2 cbr 500 ------- 1 1.0 5.0 24 46
- 1.3 1 2 cbr 500 ------- 1 1.0 5.0 24 46
r 1.30744 3 4 tcp 1040 ------- 0 0.0 4.0 9 39
+ 1.30744 4 3 ack 40 ------- 0 4.0 0.0 9 47
- 1.30744 4 3 ack 40 ------- 0 4.0 0.0 9 47
r 1.308 1 2 cbr 500 ------- 1 1.0 5.0 23 45
+ 1.308 2 3 cbr 500 ------- 1 1.0 5.0 23 45
- 1.308 2 3 cbr 500 ------- 1 1.0 5.0 23 45
r 1.316 2 3 cbr 500 ------- 1 1.0 5.0 22 44
+ 1.316 3 5 cbr 500 ------- 1 1.0 5.0 22 44
- 1.316 3 5 cbr 500 ------- 1 1.0 5.0 22 44
r 1.32408 3 4 tcp 1040 ------- 0 0.0 4.0 10 40
+ 1.32408 4 3 ack 40 ------- 0 4.0 0.0 10 48
- 1.32408 4 3 ack 40 ------- 0 4.0 0.0 10 48
r 1.34008 3 5 cbr 500 ------- 1 1.0 5.0 21 42
r 1.34072 3 4 tcp 1040 ------- 0 0.0 4.0 11 41
+ 1.34072 4 3 ack 40 ------- 0 4.0 0.0 11 49
- 1.34072 4 3 ack 40 ------- 0 4.0 0.0 11 49
v 1.3500000000000001 eval {set sim_annotation {Ack_12,13,14,15}}
+ 1.35 1 2 cbr 500 ------- 1 1.0 5.0 25 50
- 1.35 1 2 cbr 500 ------- 1 1.0 5.0 25 50
r 1.358 1 2 cbr 500 ------- 1 1.0 5.0 24 46
+ 1.358 2 3 cbr 500 ------- 1 1.0 5.0 24 46
- 1.358 2 3 cbr 500 ------- 1 1.0 5.0 24 46
r 1.35808 4 3 ack 40 ------- 0 4.0 0.0 9 47
+ 1.35808 3 2 ack 40 ------- 0 4.0 0.0 9 47
- 1.35808 3 2 ack 40 ------- 0 4.0 0.0 9 47
r 1.36536 3 4 tcp 1040 ------- 0 0.0 4.0 12 43
+ 1.36536 4 3 ack 40 ------- 0 4.0 0.0 12 51
- 1.36536 4 3 ack 40 ------- 0 4.0 0.0 12 51
r 1.366 2 3 cbr 500 ------- 1 1.0 5.0 23 45
+ 1.366 3 5 cbr 500 ------- 1 1.0 5.0 23 45
- 1.366 3 5 cbr 500 ------- 1 1.0 5.0 23 45
r 1.374 3 5 cbr 500 ------- 1 1.0 5.0 22 44
r 1.37472 4 3 ack 40 ------- 0 4.0 0.0 10 48
+ 1.37472 3 2 ack 40 ------- 0 4.0 0.0 10 48
- 1.37472 3 2 ack 40 ------- 0 4.0 0.0 10 48
r 1.39136 4 3 ack 40 ------- 0 4.0 0.0 11 49
+ 1.39136 3 2 ack 40 ------- 0 4.0 0.0 11 49
- 1.39136 3 2 ack 40 ------- 0 4.0 0.0 11 49
+ 1.4 1 2 cbr 500 ------- 1 1.0 5.0 26 52
- 1.4 1 2 cbr 500 ------- 1 1.0 5.0 26 52
r 1.408 1 2 cbr 500 ------- 1 1.0 5.0 25 50
+ 1.408 2 3 cbr 500 ------- 1 1.0 5.0 25 50
- 1.408 2 3 cbr 500 ------- 1 1.0 5.0 25 50
r 1.40872 3 2 ack 40 ------- 0 4.0 0.0 9 47
+ 1.40872 2 0 ack 40 ------- 0 4.0 0.0 9 47
- 1.40872 2 0 ack 40 ------- 0 4.0 0.0 9 47
r 1.416 4 3 ack 40 ------- 0 4.0 0.0 12 51
+ 1.416 3 2 ack 40 ------- 0 4.0 0.0 12 51
- 1.416 3 2 ack 40 ------- 0 4.0 0.0 12 51
r 1.416 2 3 cbr 500 ------- 1 1.0 5.0 24 46
+ 1.416 3 5 cbr 500 ------- 1 1.0 5.0 24 46
- 1.416 3 5 cbr 500 ------- 1 1.0 5.0 24 46
r 1.424 3 5 cbr 500 ------- 1 1.0 5.0 23 45
r 1.42536 3 2 ack 40 ------- 0 4.0 0.0 10 48
+ 1.42536 2 0 ack 40 ------- 0 4.0 0.0 10 48
- 1.42536 2 0 ack 40 ------- 0 4.0 0.0 10 48
r 1.442 3 2 ack 40 ------- 0 4.0 0.0 11 49
+ 1.442 2 0 ack 40 ------- 0 4.0 0.0 11 49
- 1.442 2 0 ack 40 ------- 0 4.0 0.0 11 49
+ 1.45 1 2 cbr 500 ------- 1 1.0 5.0 27 53
- 1.45 1 2 cbr 500 ------- 1 1.0 5.0 27 53
r 1.458 1 2 cbr 500 ------- 1 1.0 5.0 26 52
+ 1.458 2 3 cbr 500 ------- 1 1.0 5.0 26 52
- 1.458 2 3 cbr 500 ------- 1 1.0 5.0 26 52
r 1.45936 2 0 ack 40 ------- 0 4.0 0.0 9 47
+ 1.45936 0 2 tcp 1040 ------- 0 0.0 4.0 13 54
- 1.45936 0 2 tcp 1040 ------- 0 0.0 4.0 13 54
r 1.466 2 3 cbr 500 ------- 1 1.0 5.0 25 50
+ 1.466 3 5 cbr 500 ------- 1 1.0 5.0 25 50
- 1.466 3 5 cbr 500 ------- 1 1.0 5.0 25 50
r 1.46664 3 2 ack 40 ------- 0 4.0 0.0 12 51
+ 1.46664 2 0 ack 40 ------- 0 4.0 0.0 12 51
- 1.46664 2 0 ack 40 ------- 0 4.0 0.0 12 51
r 1.474 3 5 cbr 500 ------- 1 1.0 5.0 24 46
r 1.476 2 0 ack 40 ------- 0 4.0 0.0 10 48
+ 1.476 0 2 tcp 1040 ------- 0 0.0 4.0 14 55
- 1.476 0 2 tcp 1040 ------- 0 0.0 4.0 14 55
r 1.49264 2 0 ack 40 ------- 0 4.0 0.0 11 49
+ 1.49264 0 2 tcp 1040 ------- 0 0.0 4.0 15 56
- 1.49264 0 2 tcp 1040 ------- 0 0.0 4.0 15 56
v 1.5 eval {set sim_annotation {Send Packet_16,17,18,19   : window size, 4}}
+ 1.5 1 2 cbr 500 ------- 1 1.0 5.0 28 57
- 1.5 1 2 cbr 500 ------- 1 1.0 5.0 28 57
r 1.508 1 2 cbr 500 ------- 1 1.0 5.0 27 53
+ 1.508 2 3 cbr 500 ------- 1 1.0 5.0 27 53
- 1.508 2 3 cbr 500 ------- 1 1.0 5.0 27 53
r 1.516 2 3 cbr 500 ------- 1 1.0 5.0 26 52
+ 1.516 3 5 cbr 500 ------- 1 1.0 5.0 26 52
- 1.516 3 5 cbr 500 ------- 1 1.0 5.0 26 52
r 1.51728 2 0 ack 40 ------- 0 4.0 0.0 12 51
+ 1.51728 0 2 tcp 1040 ------- 0 0.0 4.0 16 58
- 1.51728 0 2 tcp 1040 ------- 0 0.0 4.0 16 58
r 1.524 3 5 cbr 500 ------- 1 1.0 5.0 25 50
r 1.526 0 2 tcp 1040 ------- 0 0.0 4.0 13 54
+ 1.526 2 3 tcp 1040 ------- 0 0.0 4.0 13 54
- 1.526 2 3 tcp 1040 ------- 0 0.0 4.0 13 54
r 1.54264 0 2 tcp 1040 ------- 0 0.0 4.0 14 55
+ 1.54264 2 3 tcp 1040 ------- 0 0.0 4.0 14 55
- 1.54264 2 3 tcp 1040 ------- 0 0.0 4.0 14 55
+ 1.55 1 2 cbr 500 ------- 1 1.0 5.0 29 59
- 1.55 1 2 cbr 500 ------- 1 1.0 5.0 29 59
r 1.558 1 2 cbr 500 ------- 1 1.0 5.0 28 57
+ 1.558 2 3 cbr 500 ------- 1 1.0 5.0 28 57
r 1.55928 0 2 tcp 1040 ------- 0 0.0 4.0 15 56
+ 1.55928 2 3 tcp 1040 ------- 0 0.0 4.0 15 56
- 1.55928 2 3 cbr 500 ------- 1 1.0 5.0 28 57
r 1.566 2 3 cbr 500 ------- 1 1.0 5.0 27 53
+ 1.566 3 5 cbr 500 ------- 1 1.0 5.0 27 53
- 1.566 3 5 cbr 500 ------- 1 1.0 5.0 27 53
- 1.56728 2 3 tcp 1040 ------- 0 0.0 4.0 15 56
r 1.574 3 5 cbr 500 ------- 1 1.0 5.0 26 52
r 1.58392 0 2 tcp 1040 ------- 0 0.0 4.0 16 58
+ 1.58392 2 3 tcp 1040 ------- 0 0.0 4.0 16 58
- 1.58392 2 3 tcp 1040 ------- 0 0.0 4.0 16 58
r 1.59264 2 3 tcp 1040 ------- 0 0.0 4.0 13 54
+ 1.59264 3 4 tcp 1040 ------- 0 0.0 4.0 13 54
- 1.59264 3 4 tcp 1040 ------- 0 0.0 4.0 13 54
+ 1.6 1 2 cbr 500 ------- 1 1.0 5.0 30 60
- 1.6 1 2 cbr 500 ------- 1 1.0 5.0 30 60
r 1.608 1 2 cbr 500 ------- 1 1.0 5.0 29 59
+ 1.608 2 3 cbr 500 ------- 1 1.0 5.0 29 59
- 1.608 2 3 cbr 500 ------- 1 1.0 5.0 29 59
r 1.60928 2 3 tcp 1040 ------- 0 0.0 4.0 14 55
+ 1.60928 3 4 tcp 1040 ------- 0 0.0 4.0 14 55
- 1.60928 3 4 tcp 1040 ------- 0 0.0 4.0 14 55
r 1.61728 2 3 cbr 500 ------- 1 1.0 5.0 28 57
+ 1.61728 3 5 cbr 500 ------- 1 1.0 5.0 28 57
- 1.61728 3 5 cbr 500 ------- 1 1.0 5.0 28 57
r 1.624 3 5 cbr 500 ------- 1 1.0 5.0 27 53
r 1.63392 2 3 tcp 1040 ------- 0 0.0 4.0 15 56
+ 1.63392 3 4 tcp 1040 ------- 0 0.0 4.0 15 56
- 1.63392 3 4 tcp 1040 ------- 0 0.0 4.0 15 56
+ 1.65 1 2 cbr 500 ------- 1 1.0 5.0 31 61
- 1.65 1 2 cbr 500 ------- 1 1.0 5.0 31 61
r 1.65056 2 3 tcp 1040 ------- 0 0.0 4.0 16 58
+ 1.65056 3 4 tcp 1040 ------- 0 0.0 4.0 16 58
- 1.65056 3 4 tcp 1040 ------- 0 0.0 4.0 16 58
r 1.658 1 2 cbr 500 ------- 1 1.0 5.0 30 60
+ 1.658 2 3 cbr 500 ------- 1 1.0 5.0 30 60
- 1.658 2 3 cbr 500 ------- 1 1.0 5.0 30 60
r 1.65928 3 4 tcp 1040 ------- 0 0.0 4.0 13 54
+ 1.65928 4 3 ack 40 ------- 0 4.0 0.0 13 62
- 1.65928 4 3 ack 40 ------- 0 4.0 0.0 13 62
r 1.666 2 3 cbr 500 ------- 1 1.0 5.0 29 59
+ 1.666 3 5 cbr 500 ------- 1 1.0 5.0 29 59
- 1.666 3 5 cbr 500 ------- 1 1.0 5.0 29 59
r 1.67528 3 5 cbr 500 ------- 1 1.0 5.0 28 57
r 1.67592 3 4 tcp 1040 ------- 0 0.0 4.0 14 55
+ 1.67592 4 3 ack 40 ------- 0 4.0 0.0 14 63
- 1.67592 4 3 ack 40 ------- 0 4.0 0.0 14 63
r 1.70056 3 4 tcp 1040 ------- 0 0.0 4.0 15 56
+ 1.70056 4 3 ack 40 ------- 0 4.0 0.0 15 64
- 1.70056 4 3 ack 40 ------- 0 4.0 0.0 15 64
r 1.708 1 2 cbr 500 ------- 1 1.0 5.0 31 61
+ 1.708 2 3 cbr 500 ------- 1 1.0 5.0 31 61
- 1.708 2 3 cbr 500 ------- 1 1.0 5.0 31 61
r 1.70992 4 3 ack 40 ------- 0 4.0 0.0 13 62
+ 1.70992 3 2 ack 40 ------- 0 4.0 0.0 13 62
- 1.70992 3 2 ack 40 ------- 0 4.0 0.0 13 62
v 1.71 eval {set sim_annotation {Ack_16,17,18,19}}
r 1.716 2 3 cbr 500 ------- 1 1.0 5.0 30 60
+ 1.716 3 5 cbr 500 ------- 1 1.0 5.0 30 60
- 1.716 3 5 cbr 500 ------- 1 1.0 5.0 30 60
r 1.7172 3 4 tcp 1040 ------- 0 0.0 4.0 16 58
+ 1.7172 4 3 ack 40 ------- 0 4.0 0.0 16 65
- 1.7172 4 3 ack 40 ------- 0 4.0 0.0 16 65
r 1.724 3 5 cbr 500 ------- 1 1.0 5.0 29 59
r 1.72656 4 3 ack 40 ------- 0 4.0 0.0 14 63
+ 1.72656 3 2 ack 40 ------- 0 4.0 0.0 14 63
- 1.72656 3 2 ack 40 ------- 0 4.0 0.0 14 63
r 1.7512 4 3 ack 40 ------- 0 4.0 0.0 15 64
+ 1.7512 3 2 ack 40 ------- 0 4.0 0.0 15 64
- 1.7512 3 2 ack 40 ------- 0 4.0 0.0 15 64
r 1.76056 3 2 ack 40 ------- 0 4.0 0.0 13 62
+ 1.76056 2 0 ack 40 ------- 0 4.0 0.0 13 62
- 1.76056 2 0 ack 40 ------- 0 4.0 0.0 13 62
r 1.766 2 3 cbr 500 ------- 1 1.0 5.0 31 61
+ 1.766 3 5 cbr 500 ------- 1 1.0 5.0 31 61
- 1.766 3 5 cbr 500 ------- 1 1.0 5.0 31 61
r 1.76784 4 3 ack 40 ------- 0 4.0 0.0 16 65
+ 1.76784 3 2 ack 40 ------- 0 4.0 0.0 16 65
- 1.76784 3 2 ack 40 ------- 0 4.0 0.0 16 65
r 1.774 3 5 cbr 500 ------- 1 1.0 5.0 30 60
r 1.7772 3 2 ack 40 ------- 0 4.0 0.0 14 63
+ 1.7772 2 0 ack 40 ------- 0 4.0 0.0 14 63
- 1.7772 2 0 ack 40 ------- 0 4.0 0.0 14 63
v 1.8 eval {set sim_annotation {FTP stops at 1.7}}
v 1.8 eval {set sim_annotation {CBR stops at 1.7}}
r 1.80184 3 2 ack 40 ------- 0 4.0 0.0 15 64
+ 1.80184 2 0 ack 40 ------- 0 4.0 0.0 15 64
- 1.80184 2 0 ack 40 ------- 0 4.0 0.0 15 64
r 1.8112 2 0 ack 40 ------- 0 4.0 0.0 13 62
r 1.81848 3 2 ack 40 ------- 0 4.0 0.0 16 65
+ 1.81848 2 0 ack 40 ------- 0 4.0 0.0 16 65
- 1.81848 2 0 ack 40 ------- 0 4.0 0.0 16 65
r 1.824 3 5 cbr 500 ------- 1 1.0 5.0 31 61
r 1.82784 2 0 ack 40 ------- 0 4.0 0.0 14 63
r 1.85248 2 0 ack 40 ------- 0 4.0 0.0 15 64
r 1.86912 2 0 ack 40 ------- 0 4.0 0.0 16 65
