V -t * -v 1.0a5 -a 0
A -t * -n 1 -p 0 -o 0x7fffffff -c 30 -a 1
A -t * -h 1 -m 1073741823 -s 0
c -t * -i 1 -n red
c -t * -i 2 -n blue
n -t * -a 17 -s 17 -S UP -v circle -c black -i black
n -t * -a 0 -s 0 -S UP -v circle -c black -i black
n -t * -a 18 -s 18 -S UP -v circle -c black -i black
n -t * -a 1 -s 1 -S UP -v circle -c black -i black
n -t * -a 20 -s 20 -S UP -v circle -c black -i black
n -t * -a 19 -s 19 -S UP -v circle -c black -i black
n -t * -a 2 -s 2 -S UP -v circle -c black -i black
n -t * -a 21 -s 21 -S UP -v circle -c black -i black
n -t * -a 3 -s 3 -S UP -v circle -c black -i black
n -t * -a 22 -s 22 -S UP -v circle -c black -i black
n -t * -a 4 -s 4 -S UP -v circle -c black -i black
n -t * -a 23 -s 23 -S UP -v circle -c black -i black
n -t * -a 5 -s 5 -S UP -v circle -c black -i black
n -t * -a 24 -s 24 -S UP -v circle -c black -i black
n -t * -a 6 -s 6 -S UP -v circle -c black -i black
n -t * -a 25 -s 25 -S UP -v circle -c black -i black
n -t * -a 7 -s 7 -S UP -v circle -c black -i black
n -t * -a 8 -s 8 -S UP -v circle -c black -i black
n -t * -a 9 -s 9 -S UP -v circle -c black -i black
n -t * -a 10 -s 10 -S UP -v circle -c black -i black
n -t * -a 11 -s 11 -S UP -v circle -c black -i black
n -t * -a 12 -s 12 -S UP -v circle -c black -i black
n -t * -a 13 -s 13 -S UP -v circle -c black -i black
n -t * -a 14 -s 14 -S UP -v circle -c black -i black
n -t * -a 15 -s 15 -S UP -v circle -c black -i black
n -t * -a 16 -s 16 -S UP -v circle -c black -i black
l -t * -s 0 -d 1 -S UP -r 1000000 -D 0.014999999999999999 -c black
l -t * -s 0 -d 2 -S UP -r 1000000 -D 0.014999999999999999 -c black
l -t * -s 0 -d 3 -S UP -r 1000000 -D 0.014999999999999999 -c black
l -t * -s 0 -d 4 -S UP -r 1000000 -D 0.014999999999999999 -c black
l -t * -s 0 -d 5 -S UP -r 1000000 -D 0.014999999999999999 -c black
l -t * -s 0 -d 6 -S UP -r 1000000 -D 0.014999999999999999 -c black
l -t * -s 0 -d 7 -S UP -r 1000000 -D 0.014999999999999999 -c black
l -t * -s 0 -d 8 -S UP -r 1000000 -D 0.014999999999999999 -c black
l -t * -s 0 -d 9 -S UP -r 1000000 -D 0.014999999999999999 -c black
l -t * -s 0 -d 10 -S UP -r 1000000 -D 0.014999999999999999 -c black
l -t * -s 0 -d 11 -S UP -r 1000000 -D 0.014999999999999999 -c black
l -t * -s 0 -d 12 -S UP -r 1000000 -D 0.014999999999999999 -c black
l -t * -s 0 -d 13 -S UP -r 1000000 -D 0.014999999999999999 -c black
l -t * -s 0 -d 14 -S UP -r 1000000 -D 0.014999999999999999 -c black
l -t * -s 0 -d 15 -S UP -r 1000000 -D 0.014999999999999999 -c black
l -t * -s 0 -d 16 -S UP -r 1000000 -D 0.014999999999999999 -c black
l -t * -s 0 -d 17 -S UP -r 1000000 -D 0.014999999999999999 -c black
l -t * -s 0 -d 18 -S UP -r 1000000 -D 0.014999999999999999 -c black
l -t * -s 0 -d 19 -S UP -r 1000000 -D 0.014999999999999999 -c black
l -t * -s 0 -d 20 -S UP -r 1000000 -D 0.014999999999999999 -c black
l -t * -s 0 -d 21 -S UP -r 1000000 -D 0.014999999999999999 -c black
l -t * -s 0 -d 22 -S UP -r 1000000 -D 0.014999999999999999 -c black
l -t * -s 0 -d 23 -S UP -r 1000000 -D 0.014999999999999999 -c black
l -t * -s 0 -d 24 -S UP -r 1000000 -D 0.014999999999999999 -c black
l -t * -s 0 -d 25 -S UP -r 1000000 -D 0.014999999999999999 -c black
+ -t 0 -s 1 -d 0 -p tcp -e 40 -c 2 -i 0 -a 2 -x {1.0 0.0 0 ------- null}
- -t 0 -s 1 -d 0 -p tcp -e 40 -c 2 -i 0 -a 2 -x {1.0 0.0 0 ------- null}
h -t 0 -s 1 -d 0 -p tcp -e 40 -c 2 -i 0 -a 2 -x {1.0 0.0 -1 ------- null}
+ -t 0 -s 0 -d 1 -p cbr -e 1000 -c 1 -i 1 -a 1 -x {0.1 1.1 0 ------- null}
- -t 0 -s 0 -d 1 -p cbr -e 1000 -c 1 -i 1 -a 1 -x {0.1 1.1 0 ------- null}
h -t 0 -s 0 -d 1 -p cbr -e 1000 -c 1 -i 1 -a 1 -x {0.1 1.1 -1 ------- null}
+ -t 0 -s 2 -d 0 -p tcp -e 40 -c 2 -i 2 -a 2 -x {2.0 0.2 0 ------- null}
- -t 0 -s 2 -d 0 -p tcp -e 40 -c 2 -i 2 -a 2 -x {2.0 0.2 0 ------- null}
h -t 0 -s 2 -d 0 -p tcp -e 40 -c 2 -i 2 -a 2 -x {2.0 0.2 -1 ------- null}
+ -t 0 -s 0 -d 2 -p cbr -e 1000 -c 1 -i 3 -a 1 -x {0.3 2.1 0 ------- null}
- -t 0 -s 0 -d 2 -p cbr -e 1000 -c 1 -i 3 -a 1 -x {0.3 2.1 0 ------- null}
h -t 0 -s 0 -d 2 -p cbr -e 1000 -c 1 -i 3 -a 1 -x {0.3 2.1 -1 ------- null}
+ -t 0 -s 3 -d 0 -p tcp -e 40 -c 2 -i 4 -a 2 -x {3.0 0.4 0 ------- null}
- -t 0 -s 3 -d 0 -p tcp -e 40 -c 2 -i 4 -a 2 -x {3.0 0.4 0 ------- null}
h -t 0 -s 3 -d 0 -p tcp -e 40 -c 2 -i 4 -a 2 -x {3.0 0.4 -1 ------- null}
+ -t 0 -s 0 -d 3 -p cbr -e 1000 -c 1 -i 5 -a 1 -x {0.5 3.1 0 ------- null}
- -t 0 -s 0 -d 3 -p cbr -e 1000 -c 1 -i 5 -a 1 -x {0.5 3.1 0 ------- null}
h -t 0 -s 0 -d 3 -p cbr -e 1000 -c 1 -i 5 -a 1 -x {0.5 3.1 -1 ------- null}
+ -t 0 -s 4 -d 0 -p tcp -e 40 -c 2 -i 6 -a 2 -x {4.0 0.6 0 ------- null}
- -t 0 -s 4 -d 0 -p tcp -e 40 -c 2 -i 6 -a 2 -x {4.0 0.6 0 ------- null}
h -t 0 -s 4 -d 0 -p tcp -e 40 -c 2 -i 6 -a 2 -x {4.0 0.6 -1 ------- null}
+ -t 0 -s 0 -d 4 -p cbr -e 1000 -c 1 -i 7 -a 1 -x {0.7 4.1 0 ------- null}
- -t 0 -s 0 -d 4 -p cbr -e 1000 -c 1 -i 7 -a 1 -x {0.7 4.1 0 ------- null}
h -t 0 -s 0 -d 4 -p cbr -e 1000 -c 1 -i 7 -a 1 -x {0.7 4.1 -1 ------- null}
+ -t 0 -s 5 -d 0 -p tcp -e 40 -c 2 -i 8 -a 2 -x {5.0 0.8 0 ------- null}
- -t 0 -s 5 -d 0 -p tcp -e 40 -c 2 -i 8 -a 2 -x {5.0 0.8 0 ------- null}
h -t 0 -s 5 -d 0 -p tcp -e 40 -c 2 -i 8 -a 2 -x {5.0 0.8 -1 ------- null}
+ -t 0 -s 0 -d 5 -p cbr -e 1000 -c 1 -i 9 -a 1 -x {0.9 5.1 0 ------- null}
- -t 0 -s 0 -d 5 -p cbr -e 1000 -c 1 -i 9 -a 1 -x {0.9 5.1 0 ------- null}
h -t 0 -s 0 -d 5 -p cbr -e 1000 -c 1 -i 9 -a 1 -x {0.9 5.1 -1 ------- null}
+ -t 0 -s 6 -d 0 -p tcp -e 40 -c 2 -i 10 -a 2 -x {6.0 0.10 0 ------- null}
- -t 0 -s 6 -d 0 -p tcp -e 40 -c 2 -i 10 -a 2 -x {6.0 0.10 0 ------- null}
h -t 0 -s 6 -d 0 -p tcp -e 40 -c 2 -i 10 -a 2 -x {6.0 0.10 -1 ------- null}
+ -t 0 -s 0 -d 6 -p cbr -e 1000 -c 1 -i 11 -a 1 -x {0.11 6.1 0 ------- null}
- -t 0 -s 0 -d 6 -p cbr -e 1000 -c 1 -i 11 -a 1 -x {0.11 6.1 0 ------- null}
h -t 0 -s 0 -d 6 -p cbr -e 1000 -c 1 -i 11 -a 1 -x {0.11 6.1 -1 ------- null}
+ -t 0 -s 7 -d 0 -p tcp -e 40 -c 2 -i 12 -a 2 -x {7.0 0.12 0 ------- null}
- -t 0 -s 7 -d 0 -p tcp -e 40 -c 2 -i 12 -a 2 -x {7.0 0.12 0 ------- null}
h -t 0 -s 7 -d 0 -p tcp -e 40 -c 2 -i 12 -a 2 -x {7.0 0.12 -1 ------- null}
+ -t 0 -s 0 -d 7 -p cbr -e 1000 -c 1 -i 13 -a 1 -x {0.13 7.1 0 ------- null}
- -t 0 -s 0 -d 7 -p cbr -e 1000 -c 1 -i 13 -a 1 -x {0.13 7.1 0 ------- null}
h -t 0 -s 0 -d 7 -p cbr -e 1000 -c 1 -i 13 -a 1 -x {0.13 7.1 -1 ------- null}
+ -t 0 -s 8 -d 0 -p tcp -e 40 -c 2 -i 14 -a 2 -x {8.0 0.14 0 ------- null}
- -t 0 -s 8 -d 0 -p tcp -e 40 -c 2 -i 14 -a 2 -x {8.0 0.14 0 ------- null}
h -t 0 -s 8 -d 0 -p tcp -e 40 -c 2 -i 14 -a 2 -x {8.0 0.14 -1 ------- null}
+ -t 0 -s 0 -d 8 -p cbr -e 1000 -c 1 -i 15 -a 1 -x {0.15 8.1 0 ------- null}
- -t 0 -s 0 -d 8 -p cbr -e 1000 -c 1 -i 15 -a 1 -x {0.15 8.1 0 ------- null}
h -t 0 -s 0 -d 8 -p cbr -e 1000 -c 1 -i 15 -a 1 -x {0.15 8.1 -1 ------- null}
+ -t 0 -s 9 -d 0 -p tcp -e 40 -c 2 -i 16 -a 2 -x {9.0 0.16 0 ------- null}
- -t 0 -s 9 -d 0 -p tcp -e 40 -c 2 -i 16 -a 2 -x {9.0 0.16 0 ------- null}
h -t 0 -s 9 -d 0 -p tcp -e 40 -c 2 -i 16 -a 2 -x {9.0 0.16 -1 ------- null}
+ -t 0 -s 0 -d 9 -p cbr -e 1000 -c 1 -i 17 -a 1 -x {0.17 9.1 0 ------- null}
- -t 0 -s 0 -d 9 -p cbr -e 1000 -c 1 -i 17 -a 1 -x {0.17 9.1 0 ------- null}
h -t 0 -s 0 -d 9 -p cbr -e 1000 -c 1 -i 17 -a 1 -x {0.17 9.1 -1 ------- null}
+ -t 0 -s 10 -d 0 -p tcp -e 40 -c 2 -i 18 -a 2 -x {10.0 0.18 0 ------- null}
- -t 0 -s 10 -d 0 -p tcp -e 40 -c 2 -i 18 -a 2 -x {10.0 0.18 0 ------- null}
h -t 0 -s 10 -d 0 -p tcp -e 40 -c 2 -i 18 -a 2 -x {10.0 0.18 -1 ------- null}
+ -t 0 -s 0 -d 10 -p cbr -e 1000 -c 1 -i 19 -a 1 -x {0.19 10.1 0 ------- null}
- -t 0 -s 0 -d 10 -p cbr -e 1000 -c 1 -i 19 -a 1 -x {0.19 10.1 0 ------- null}
h -t 0 -s 0 -d 10 -p cbr -e 1000 -c 1 -i 19 -a 1 -x {0.19 10.1 -1 ------- null}
+ -t 0 -s 11 -d 0 -p tcp -e 40 -c 2 -i 20 -a 2 -x {11.0 0.20 0 ------- null}
- -t 0 -s 11 -d 0 -p tcp -e 40 -c 2 -i 20 -a 2 -x {11.0 0.20 0 ------- null}
h -t 0 -s 11 -d 0 -p tcp -e 40 -c 2 -i 20 -a 2 -x {11.0 0.20 -1 ------- null}
+ -t 0 -s 0 -d 11 -p cbr -e 1000 -c 1 -i 21 -a 1 -x {0.21 11.1 0 ------- null}
- -t 0 -s 0 -d 11 -p cbr -e 1000 -c 1 -i 21 -a 1 -x {0.21 11.1 0 ------- null}
h -t 0 -s 0 -d 11 -p cbr -e 1000 -c 1 -i 21 -a 1 -x {0.21 11.1 -1 ------- null}
+ -t 0 -s 12 -d 0 -p tcp -e 40 -c 2 -i 22 -a 2 -x {12.0 0.22 0 ------- null}
- -t 0 -s 12 -d 0 -p tcp -e 40 -c 2 -i 22 -a 2 -x {12.0 0.22 0 ------- null}
h -t 0 -s 12 -d 0 -p tcp -e 40 -c 2 -i 22 -a 2 -x {12.0 0.22 -1 ------- null}
+ -t 0 -s 0 -d 12 -p cbr -e 1000 -c 1 -i 23 -a 1 -x {0.23 12.1 0 ------- null}
- -t 0 -s 0 -d 12 -p cbr -e 1000 -c 1 -i 23 -a 1 -x {0.23 12.1 0 ------- null}
h -t 0 -s 0 -d 12 -p cbr -e 1000 -c 1 -i 23 -a 1 -x {0.23 12.1 -1 ------- null}
+ -t 0 -s 13 -d 0 -p tcp -e 40 -c 2 -i 24 -a 2 -x {13.0 0.24 0 ------- null}
- -t 0 -s 13 -d 0 -p tcp -e 40 -c 2 -i 24 -a 2 -x {13.0 0.24 0 ------- null}
h -t 0 -s 13 -d 0 -p tcp -e 40 -c 2 -i 24 -a 2 -x {13.0 0.24 -1 ------- null}
+ -t 0 -s 0 -d 13 -p cbr -e 1000 -c 1 -i 25 -a 1 -x {0.25 13.1 0 ------- null}
- -t 0 -s 0 -d 13 -p cbr -e 1000 -c 1 -i 25 -a 1 -x {0.25 13.1 0 ------- null}
h -t 0 -s 0 -d 13 -p cbr -e 1000 -c 1 -i 25 -a 1 -x {0.25 13.1 -1 ------- null}
+ -t 0 -s 14 -d 0 -p tcp -e 40 -c 2 -i 26 -a 2 -x {14.0 0.26 0 ------- null}
- -t 0 -s 14 -d 0 -p tcp -e 40 -c 2 -i 26 -a 2 -x {14.0 0.26 0 ------- null}
h -t 0 -s 14 -d 0 -p tcp -e 40 -c 2 -i 26 -a 2 -x {14.0 0.26 -1 ------- null}
+ -t 0 -s 0 -d 14 -p cbr -e 1000 -c 1 -i 27 -a 1 -x {0.27 14.1 0 ------- null}
- -t 0 -s 0 -d 14 -p cbr -e 1000 -c 1 -i 27 -a 1 -x {0.27 14.1 0 ------- null}
h -t 0 -s 0 -d 14 -p cbr -e 1000 -c 1 -i 27 -a 1 -x {0.27 14.1 -1 ------- null}
+ -t 0 -s 15 -d 0 -p tcp -e 40 -c 2 -i 28 -a 2 -x {15.0 0.28 0 ------- null}
- -t 0 -s 15 -d 0 -p tcp -e 40 -c 2 -i 28 -a 2 -x {15.0 0.28 0 ------- null}
h -t 0 -s 15 -d 0 -p tcp -e 40 -c 2 -i 28 -a 2 -x {15.0 0.28 -1 ------- null}
+ -t 0 -s 0 -d 15 -p cbr -e 1000 -c 1 -i 29 -a 1 -x {0.29 15.1 0 ------- null}
- -t 0 -s 0 -d 15 -p cbr -e 1000 -c 1 -i 29 -a 1 -x {0.29 15.1 0 ------- null}
h -t 0 -s 0 -d 15 -p cbr -e 1000 -c 1 -i 29 -a 1 -x {0.29 15.1 -1 ------- null}
+ -t 0 -s 16 -d 0 -p tcp -e 40 -c 2 -i 30 -a 2 -x {16.0 0.30 0 ------- null}
- -t 0 -s 16 -d 0 -p tcp -e 40 -c 2 -i 30 -a 2 -x {16.0 0.30 0 ------- null}
h -t 0 -s 16 -d 0 -p tcp -e 40 -c 2 -i 30 -a 2 -x {16.0 0.30 -1 ------- null}
+ -t 0 -s 0 -d 16 -p cbr -e 1000 -c 1 -i 31 -a 1 -x {0.31 16.1 0 ------- null}
- -t 0 -s 0 -d 16 -p cbr -e 1000 -c 1 -i 31 -a 1 -x {0.31 16.1 0 ------- null}
h -t 0 -s 0 -d 16 -p cbr -e 1000 -c 1 -i 31 -a 1 -x {0.31 16.1 -1 ------- null}
+ -t 0 -s 17 -d 0 -p tcp -e 40 -c 2 -i 32 -a 2 -x {17.0 0.32 0 ------- null}
- -t 0 -s 17 -d 0 -p tcp -e 40 -c 2 -i 32 -a 2 -x {17.0 0.32 0 ------- null}
h -t 0 -s 17 -d 0 -p tcp -e 40 -c 2 -i 32 -a 2 -x {17.0 0.32 -1 ------- null}
+ -t 0 -s 0 -d 17 -p cbr -e 1000 -c 1 -i 33 -a 1 -x {0.33 17.1 0 ------- null}
- -t 0 -s 0 -d 17 -p cbr -e 1000 -c 1 -i 33 -a 1 -x {0.33 17.1 0 ------- null}
h -t 0 -s 0 -d 17 -p cbr -e 1000 -c 1 -i 33 -a 1 -x {0.33 17.1 -1 ------- null}
+ -t 0 -s 18 -d 0 -p tcp -e 40 -c 2 -i 34 -a 2 -x {18.0 0.34 0 ------- null}
- -t 0 -s 18 -d 0 -p tcp -e 40 -c 2 -i 34 -a 2 -x {18.0 0.34 0 ------- null}
h -t 0 -s 18 -d 0 -p tcp -e 40 -c 2 -i 34 -a 2 -x {18.0 0.34 -1 ------- null}
+ -t 0 -s 0 -d 18 -p cbr -e 1000 -c 1 -i 35 -a 1 -x {0.35 18.1 0 ------- null}
- -t 0 -s 0 -d 18 -p cbr -e 1000 -c 1 -i 35 -a 1 -x {0.35 18.1 0 ------- null}
h -t 0 -s 0 -d 18 -p cbr -e 1000 -c 1 -i 35 -a 1 -x {0.35 18.1 -1 ------- null}
+ -t 0 -s 19 -d 0 -p tcp -e 40 -c 2 -i 36 -a 2 -x {19.0 0.36 0 ------- null}
- -t 0 -s 19 -d 0 -p tcp -e 40 -c 2 -i 36 -a 2 -x {19.0 0.36 0 ------- null}
h -t 0 -s 19 -d 0 -p tcp -e 40 -c 2 -i 36 -a 2 -x {19.0 0.36 -1 ------- null}
+ -t 0 -s 0 -d 19 -p cbr -e 1000 -c 1 -i 37 -a 1 -x {0.37 19.1 0 ------- null}
- -t 0 -s 0 -d 19 -p cbr -e 1000 -c 1 -i 37 -a 1 -x {0.37 19.1 0 ------- null}
h -t 0 -s 0 -d 19 -p cbr -e 1000 -c 1 -i 37 -a 1 -x {0.37 19.1 -1 ------- null}
+ -t 0 -s 20 -d 0 -p tcp -e 40 -c 2 -i 38 -a 2 -x {20.0 0.38 0 ------- null}
- -t 0 -s 20 -d 0 -p tcp -e 40 -c 2 -i 38 -a 2 -x {20.0 0.38 0 ------- null}
h -t 0 -s 20 -d 0 -p tcp -e 40 -c 2 -i 38 -a 2 -x {20.0 0.38 -1 ------- null}
+ -t 0 -s 0 -d 20 -p cbr -e 1000 -c 1 -i 39 -a 1 -x {0.39 20.1 0 ------- null}
- -t 0 -s 0 -d 20 -p cbr -e 1000 -c 1 -i 39 -a 1 -x {0.39 20.1 0 ------- null}
h -t 0 -s 0 -d 20 -p cbr -e 1000 -c 1 -i 39 -a 1 -x {0.39 20.1 -1 ------- null}
+ -t 0 -s 21 -d 0 -p tcp -e 40 -c 2 -i 40 -a 2 -x {21.0 0.40 0 ------- null}
- -t 0 -s 21 -d 0 -p tcp -e 40 -c 2 -i 40 -a 2 -x {21.0 0.40 0 ------- null}
h -t 0 -s 21 -d 0 -p tcp -e 40 -c 2 -i 40 -a 2 -x {21.0 0.40 -1 ------- null}
+ -t 0 -s 0 -d 21 -p cbr -e 1000 -c 1 -i 41 -a 1 -x {0.41 21.1 0 ------- null}
- -t 0 -s 0 -d 21 -p cbr -e 1000 -c 1 -i 41 -a 1 -x {0.41 21.1 0 ------- null}
h -t 0 -s 0 -d 21 -p cbr -e 1000 -c 1 -i 41 -a 1 -x {0.41 21.1 -1 ------- null}
+ -t 0 -s 22 -d 0 -p tcp -e 40 -c 2 -i 42 -a 2 -x {22.0 0.42 0 ------- null}
- -t 0 -s 22 -d 0 -p tcp -e 40 -c 2 -i 42 -a 2 -x {22.0 0.42 0 ------- null}
h -t 0 -s 22 -d 0 -p tcp -e 40 -c 2 -i 42 -a 2 -x {22.0 0.42 -1 ------- null}
+ -t 0 -s 0 -d 22 -p cbr -e 1000 -c 1 -i 43 -a 1 -x {0.43 22.1 0 ------- null}
- -t 0 -s 0 -d 22 -p cbr -e 1000 -c 1 -i 43 -a 1 -x {0.43 22.1 0 ------- null}
h -t 0 -s 0 -d 22 -p cbr -e 1000 -c 1 -i 43 -a 1 -x {0.43 22.1 -1 ------- null}
+ -t 0 -s 23 -d 0 -p tcp -e 40 -c 2 -i 44 -a 2 -x {23.0 0.44 0 ------- null}
- -t 0 -s 23 -d 0 -p tcp -e 40 -c 2 -i 44 -a 2 -x {23.0 0.44 0 ------- null}
h -t 0 -s 23 -d 0 -p tcp -e 40 -c 2 -i 44 -a 2 -x {23.0 0.44 -1 ------- null}
+ -t 0 -s 0 -d 23 -p cbr -e 1000 -c 1 -i 45 -a 1 -x {0.45 23.1 0 ------- null}
- -t 0 -s 0 -d 23 -p cbr -e 1000 -c 1 -i 45 -a 1 -x {0.45 23.1 0 ------- null}
h -t 0 -s 0 -d 23 -p cbr -e 1000 -c 1 -i 45 -a 1 -x {0.45 23.1 -1 ------- null}
+ -t 0 -s 24 -d 0 -p tcp -e 40 -c 2 -i 46 -a 2 -x {24.0 0.46 0 ------- null}
- -t 0 -s 24 -d 0 -p tcp -e 40 -c 2 -i 46 -a 2 -x {24.0 0.46 0 ------- null}
h -t 0 -s 24 -d 0 -p tcp -e 40 -c 2 -i 46 -a 2 -x {24.0 0.46 -1 ------- null}
+ -t 0 -s 0 -d 24 -p cbr -e 1000 -c 1 -i 47 -a 1 -x {0.47 24.1 0 ------- null}
- -t 0 -s 0 -d 24 -p cbr -e 1000 -c 1 -i 47 -a 1 -x {0.47 24.1 0 ------- null}
h -t 0 -s 0 -d 24 -p cbr -e 1000 -c 1 -i 47 -a 1 -x {0.47 24.1 -1 ------- null}
+ -t 0.000169788487334637 -s 0 -d 1 -p rtProtoLS -e 100 -c 0 -i 50 -a 0 -x {0.49 1.4 -1 ------- null}
+ -t 0.000169788487334637 -s 0 -d 2 -p rtProtoLS -e 100 -c 0 -i 51 -a 0 -x {0.49 2.3 -1 ------- null}
+ -t 0.000169788487334637 -s 0 -d 3 -p rtProtoLS -e 100 -c 0 -i 52 -a 0 -x {0.49 3.4 -1 ------- null}
+ -t 0.000169788487334637 -s 0 -d 4 -p rtProtoLS -e 100 -c 0 -i 53 -a 0 -x {0.49 4.3 -1 ------- null}
+ -t 0.000169788487334637 -s 0 -d 5 -p rtProtoLS -e 100 -c 0 -i 54 -a 0 -x {0.49 5.3 -1 ------- null}
+ -t 0.000169788487334637 -s 0 -d 6 -p rtProtoLS -e 100 -c 0 -i 55 -a 0 -x {0.49 6.3 -1 ------- null}
+ -t 0.000169788487334637 -s 0 -d 7 -p rtProtoLS -e 100 -c 0 -i 56 -a 0 -x {0.49 7.3 -1 ------- null}
+ -t 0.000169788487334637 -s 0 -d 8 -p rtProtoLS -e 100 -c 0 -i 57 -a 0 -x {0.49 8.3 -1 ------- null}
+ -t 0.000169788487334637 -s 0 -d 9 -p rtProtoLS -e 100 -c 0 -i 58 -a 0 -x {0.49 9.3 -1 ------- null}
+ -t 0.000169788487334637 -s 0 -d 10 -p rtProtoLS -e 100 -c 0 -i 59 -a 0 -x {0.49 10.3 -1 ------- null}
+ -t 0.000169788487334637 -s 0 -d 11 -p rtProtoLS -e 100 -c 0 -i 60 -a 0 -x {0.49 11.3 -1 ------- null}
+ -t 0.000169788487334637 -s 0 -d 12 -p rtProtoLS -e 100 -c 0 -i 61 -a 0 -x {0.49 12.3 -1 ------- null}
+ -t 0.000169788487334637 -s 0 -d 13 -p rtProtoLS -e 100 -c 0 -i 62 -a 0 -x {0.49 13.3 -1 ------- null}
+ -t 0.000169788487334637 -s 0 -d 14 -p rtProtoLS -e 100 -c 0 -i 63 -a 0 -x {0.49 14.3 -1 ------- null}
+ -t 0.000169788487334637 -s 0 -d 15 -p rtProtoLS -e 100 -c 0 -i 64 -a 0 -x {0.49 15.3 -1 ------- null}
+ -t 0.000169788487334637 -s 0 -d 16 -p rtProtoLS -e 100 -c 0 -i 65 -a 0 -x {0.49 16.3 -1 ------- null}
+ -t 0.000169788487334637 -s 0 -d 17 -p rtProtoLS -e 100 -c 0 -i 66 -a 0 -x {0.49 17.3 -1 ------- null}
+ -t 0.000169788487334637 -s 0 -d 18 -p rtProtoLS -e 100 -c 0 -i 67 -a 0 -x {0.49 18.3 -1 ------- null}
+ -t 0.000169788487334637 -s 0 -d 19 -p rtProtoLS -e 100 -c 0 -i 68 -a 0 -x {0.49 19.3 -1 ------- null}
+ -t 0.000169788487334637 -s 0 -d 20 -p rtProtoLS -e 100 -c 0 -i 69 -a 0 -x {0.49 20.3 -1 ------- null}
+ -t 0.000169788487334637 -s 0 -d 21 -p rtProtoLS -e 100 -c 0 -i 70 -a 0 -x {0.49 21.3 -1 ------- null}
+ -t 0.000169788487334637 -s 0 -d 22 -p rtProtoLS -e 100 -c 0 -i 71 -a 0 -x {0.49 22.3 -1 ------- null}
+ -t 0.000169788487334637 -s 0 -d 23 -p rtProtoLS -e 100 -c 0 -i 72 -a 0 -x {0.49 23.3 -1 ------- null}
+ -t 0.000169788487334637 -s 0 -d 24 -p rtProtoLS -e 100 -c 0 -i 73 -a 0 -x {0.49 24.3 -1 ------- null}
+ -t 0.000169788487334637 -s 0 -d 25 -p rtProtoLS -e 100 -c 0 -i 74 -a 0 -x {0.49 25.3 -1 ------- null}
- -t 0.000169788487334637 -s 0 -d 25 -p rtProtoLS -e 100 -c 0 -i 74 -a 0 -x {0.49 25.3 -1 ------- null}
h -t 0.000169788487334637 -s 0 -d 25 -p rtProtoLS -e 100 -c 0 -i 74 -a 0 -x {0.49 25.3 -1 ------- null}
+ -t 0.00710233021858257 -s 2 -d 0 -p rtProtoLS -e 100 -c 0 -i 75 -a 0 -x {2.3 0.49 -1 ------- null}
- -t 0.00710233021858257 -s 2 -d 0 -p rtProtoLS -e 100 -c 0 -i 75 -a 0 -x {2.3 0.49 -1 ------- null}
h -t 0.00710233021858257 -s 2 -d 0 -p rtProtoLS -e 100 -c 0 -i 75 -a 0 -x {2.3 0.49 -1 ------- null}
- -t 0.008 -s 0 -d 1 -p rtProtoLS -e 100 -c 0 -i 50 -a 0 -x {0.49 1.4 -1 ------- null}
h -t 0.008 -s 0 -d 1 -p rtProtoLS -e 100 -c 0 -i 50 -a 0 -x {0.49 1.4 -1 ------- null}
+ -t 0.008 -s 0 -d 1 -p cbr -e 1000 -c 1 -i 76 -a 1 -x {0.1 1.1 1 ------- null}
- -t 0.008 -s 0 -d 2 -p rtProtoLS -e 100 -c 0 -i 51 -a 0 -x {0.49 2.3 -1 ------- null}
h -t 0.008 -s 0 -d 2 -p rtProtoLS -e 100 -c 0 -i 51 -a 0 -x {0.49 2.3 -1 ------- null}
+ -t 0.008 -s 0 -d 2 -p cbr -e 1000 -c 1 -i 77 -a 1 -x {0.3 2.1 1 ------- null}
- -t 0.008 -s 0 -d 3 -p rtProtoLS -e 100 -c 0 -i 52 -a 0 -x {0.49 3.4 -1 ------- null}
h -t 0.008 -s 0 -d 3 -p rtProtoLS -e 100 -c 0 -i 52 -a 0 -x {0.49 3.4 -1 ------- null}
+ -t 0.008 -s 0 -d 3 -p cbr -e 1000 -c 1 -i 78 -a 1 -x {0.5 3.1 1 ------- null}
- -t 0.008 -s 0 -d 4 -p rtProtoLS -e 100 -c 0 -i 53 -a 0 -x {0.49 4.3 -1 ------- null}
h -t 0.008 -s 0 -d 4 -p rtProtoLS -e 100 -c 0 -i 53 -a 0 -x {0.49 4.3 -1 ------- null}
+ -t 0.008 -s 0 -d 4 -p cbr -e 1000 -c 1 -i 79 -a 1 -x {0.7 4.1 1 ------- null}
- -t 0.008 -s 0 -d 5 -p rtProtoLS -e 100 -c 0 -i 54 -a 0 -x {0.49 5.3 -1 ------- null}
h -t 0.008 -s 0 -d 5 -p rtProtoLS -e 100 -c 0 -i 54 -a 0 -x {0.49 5.3 -1 ------- null}
+ -t 0.008 -s 0 -d 5 -p cbr -e 1000 -c 1 -i 80 -a 1 -x {0.9 5.1 1 ------- null}
- -t 0.008 -s 0 -d 6 -p rtProtoLS -e 100 -c 0 -i 55 -a 0 -x {0.49 6.3 -1 ------- null}
h -t 0.008 -s 0 -d 6 -p rtProtoLS -e 100 -c 0 -i 55 -a 0 -x {0.49 6.3 -1 ------- null}
+ -t 0.008 -s 0 -d 6 -p cbr -e 1000 -c 1 -i 81 -a 1 -x {0.11 6.1 1 ------- null}
- -t 0.008 -s 0 -d 7 -p rtProtoLS -e 100 -c 0 -i 56 -a 0 -x {0.49 7.3 -1 ------- null}
h -t 0.008 -s 0 -d 7 -p rtProtoLS -e 100 -c 0 -i 56 -a 0 -x {0.49 7.3 -1 ------- null}
+ -t 0.008 -s 0 -d 7 -p cbr -e 1000 -c 1 -i 82 -a 1 -x {0.13 7.1 1 ------- null}
- -t 0.008 -s 0 -d 8 -p rtProtoLS -e 100 -c 0 -i 57 -a 0 -x {0.49 8.3 -1 ------- null}
h -t 0.008 -s 0 -d 8 -p rtProtoLS -e 100 -c 0 -i 57 -a 0 -x {0.49 8.3 -1 ------- null}
+ -t 0.008 -s 0 -d 8 -p cbr -e 1000 -c 1 -i 83 -a 1 -x {0.15 8.1 1 ------- null}
- -t 0.008 -s 0 -d 9 -p rtProtoLS -e 100 -c 0 -i 58 -a 0 -x {0.49 9.3 -1 ------- null}
h -t 0.008 -s 0 -d 9 -p rtProtoLS -e 100 -c 0 -i 58 -a 0 -x {0.49 9.3 -1 ------- null}
+ -t 0.008 -s 0 -d 9 -p cbr -e 1000 -c 1 -i 84 -a 1 -x {0.17 9.1 1 ------- null}
- -t 0.008 -s 0 -d 10 -p rtProtoLS -e 100 -c 0 -i 59 -a 0 -x {0.49 10.3 -1 ------- null}
h -t 0.008 -s 0 -d 10 -p rtProtoLS -e 100 -c 0 -i 59 -a 0 -x {0.49 10.3 -1 ------- null}
+ -t 0.008 -s 0 -d 10 -p cbr -e 1000 -c 1 -i 85 -a 1 -x {0.19 10.1 1 ------- null}
- -t 0.008 -s 0 -d 11 -p rtProtoLS -e 100 -c 0 -i 60 -a 0 -x {0.49 11.3 -1 ------- null}
h -t 0.008 -s 0 -d 11 -p rtProtoLS -e 100 -c 0 -i 60 -a 0 -x {0.49 11.3 -1 ------- null}
+ -t 0.008 -s 0 -d 11 -p cbr -e 1000 -c 1 -i 86 -a 1 -x {0.21 11.1 1 ------- null}
- -t 0.008 -s 0 -d 12 -p rtProtoLS -e 100 -c 0 -i 61 -a 0 -x {0.49 12.3 -1 ------- null}
h -t 0.008 -s 0 -d 12 -p rtProtoLS -e 100 -c 0 -i 61 -a 0 -x {0.49 12.3 -1 ------- null}
+ -t 0.008 -s 0 -d 12 -p cbr -e 1000 -c 1 -i 87 -a 1 -x {0.23 12.1 1 ------- null}
- -t 0.008 -s 0 -d 13 -p rtProtoLS -e 100 -c 0 -i 62 -a 0 -x {0.49 13.3 -1 ------- null}
h -t 0.008 -s 0 -d 13 -p rtProtoLS -e 100 -c 0 -i 62 -a 0 -x {0.49 13.3 -1 ------- null}
+ -t 0.008 -s 0 -d 13 -p cbr -e 1000 -c 1 -i 88 -a 1 -x {0.25 13.1 1 ------- null}
- -t 0.008 -s 0 -d 14 -p rtProtoLS -e 100 -c 0 -i 63 -a 0 -x {0.49 14.3 -1 ------- null}
h -t 0.008 -s 0 -d 14 -p rtProtoLS -e 100 -c 0 -i 63 -a 0 -x {0.49 14.3 -1 ------- null}
+ -t 0.008 -s 0 -d 14 -p cbr -e 1000 -c 1 -i 89 -a 1 -x {0.27 14.1 1 ------- null}
- -t 0.008 -s 0 -d 15 -p rtProtoLS -e 100 -c 0 -i 64 -a 0 -x {0.49 15.3 -1 ------- null}
h -t 0.008 -s 0 -d 15 -p rtProtoLS -e 100 -c 0 -i 64 -a 0 -x {0.49 15.3 -1 ------- null}
+ -t 0.008 -s 0 -d 15 -p cbr -e 1000 -c 1 -i 90 -a 1 -x {0.29 15.1 1 ------- null}
- -t 0.008 -s 0 -d 16 -p rtProtoLS -e 100 -c 0 -i 65 -a 0 -x {0.49 16.3 -1 ------- null}
h -t 0.008 -s 0 -d 16 -p rtProtoLS -e 100 -c 0 -i 65 -a 0 -x {0.49 16.3 -1 ------- null}
+ -t 0.008 -s 0 -d 16 -p cbr -e 1000 -c 1 -i 91 -a 1 -x {0.31 16.1 1 ------- null}
- -t 0.008 -s 0 -d 17 -p rtProtoLS -e 100 -c 0 -i 66 -a 0 -x {0.49 17.3 -1 ------- null}
h -t 0.008 -s 0 -d 17 -p rtProtoLS -e 100 -c 0 -i 66 -a 0 -x {0.49 17.3 -1 ------- null}
+ -t 0.008 -s 0 -d 17 -p cbr -e 1000 -c 1 -i 92 -a 1 -x {0.33 17.1 1 ------- null}
- -t 0.008 -s 0 -d 18 -p rtProtoLS -e 100 -c 0 -i 67 -a 0 -x {0.49 18.3 -1 ------- null}
h -t 0.008 -s 0 -d 18 -p rtProtoLS -e 100 -c 0 -i 67 -a 0 -x {0.49 18.3 -1 ------- null}
+ -t 0.008 -s 0 -d 18 -p cbr -e 1000 -c 1 -i 93 -a 1 -x {0.35 18.1 1 ------- null}
- -t 0.008 -s 0 -d 19 -p rtProtoLS -e 100 -c 0 -i 68 -a 0 -x {0.49 19.3 -1 ------- null}
h -t 0.008 -s 0 -d 19 -p rtProtoLS -e 100 -c 0 -i 68 -a 0 -x {0.49 19.3 -1 ------- null}
+ -t 0.008 -s 0 -d 19 -p cbr -e 1000 -c 1 -i 94 -a 1 -x {0.37 19.1 1 ------- null}
- -t 0.008 -s 0 -d 20 -p rtProtoLS -e 100 -c 0 -i 69 -a 0 -x {0.49 20.3 -1 ------- null}
h -t 0.008 -s 0 -d 20 -p rtProtoLS -e 100 -c 0 -i 69 -a 0 -x {0.49 20.3 -1 ------- null}
+ -t 0.008 -s 0 -d 20 -p cbr -e 1000 -c 1 -i 95 -a 1 -x {0.39 20.1 1 ------- null}
- -t 0.008 -s 0 -d 21 -p rtProtoLS -e 100 -c 0 -i 70 -a 0 -x {0.49 21.3 -1 ------- null}
h -t 0.008 -s 0 -d 21 -p rtProtoLS -e 100 -c 0 -i 70 -a 0 -x {0.49 21.3 -1 ------- null}
+ -t 0.008 -s 0 -d 21 -p cbr -e 1000 -c 1 -i 96 -a 1 -x {0.41 21.1 1 ------- null}
- -t 0.008 -s 0 -d 22 -p rtProtoLS -e 100 -c 0 -i 71 -a 0 -x {0.49 22.3 -1 ------- null}
h -t 0.008 -s 0 -d 22 -p rtProtoLS -e 100 -c 0 -i 71 -a 0 -x {0.49 22.3 -1 ------- null}
+ -t 0.008 -s 0 -d 22 -p cbr -e 1000 -c 1 -i 97 -a 1 -x {0.43 22.1 1 ------- null}
- -t 0.008 -s 0 -d 23 -p rtProtoLS -e 100 -c 0 -i 72 -a 0 -x {0.49 23.3 -1 ------- null}
h -t 0.008 -s 0 -d 23 -p rtProtoLS -e 100 -c 0 -i 72 -a 0 -x {0.49 23.3 -1 ------- null}
+ -t 0.008 -s 0 -d 23 -p cbr -e 1000 -c 1 -i 98 -a 1 -x {0.45 23.1 1 ------- null}
- -t 0.008 -s 0 -d 24 -p rtProtoLS -e 100 -c 0 -i 73 -a 0 -x {0.49 24.3 -1 ------- null}
h -t 0.008 -s 0 -d 24 -p rtProtoLS -e 100 -c 0 -i 73 -a 0 -x {0.49 24.3 -1 ------- null}
+ -t 0.008 -s 0 -d 24 -p cbr -e 1000 -c 1 -i 99 -a 1 -x {0.47 24.1 1 ------- null}
- -t 0.0088 -s 0 -d 1 -p cbr -e 1000 -c 1 -i 76 -a 1 -x {0.1 1.1 1 ------- null}
h -t 0.0088 -s 0 -d 1 -p cbr -e 1000 -c 1 -i 76 -a 1 -x {0.1 1.1 -1 ------- null}
- -t 0.0088 -s 0 -d 2 -p cbr -e 1000 -c 1 -i 77 -a 1 -x {0.3 2.1 1 ------- null}
h -t 0.0088 -s 0 -d 2 -p cbr -e 1000 -c 1 -i 77 -a 1 -x {0.3 2.1 -1 ------- null}
- -t 0.0088 -s 0 -d 3 -p cbr -e 1000 -c 1 -i 78 -a 1 -x {0.5 3.1 1 ------- null}
h -t 0.0088 -s 0 -d 3 -p cbr -e 1000 -c 1 -i 78 -a 1 -x {0.5 3.1 -1 ------- null}
- -t 0.0088 -s 0 -d 4 -p cbr -e 1000 -c 1 -i 79 -a 1 -x {0.7 4.1 1 ------- null}
h -t 0.0088 -s 0 -d 4 -p cbr -e 1000 -c 1 -i 79 -a 1 -x {0.7 4.1 -1 ------- null}
- -t 0.0088 -s 0 -d 5 -p cbr -e 1000 -c 1 -i 80 -a 1 -x {0.9 5.1 1 ------- null}
h -t 0.0088 -s 0 -d 5 -p cbr -e 1000 -c 1 -i 80 -a 1 -x {0.9 5.1 -1 ------- null}
- -t 0.0088 -s 0 -d 6 -p cbr -e 1000 -c 1 -i 81 -a 1 -x {0.11 6.1 1 ------- null}
h -t 0.0088 -s 0 -d 6 -p cbr -e 1000 -c 1 -i 81 -a 1 -x {0.11 6.1 -1 ------- null}
- -t 0.0088 -s 0 -d 7 -p cbr -e 1000 -c 1 -i 82 -a 1 -x {0.13 7.1 1 ------- null}
h -t 0.0088 -s 0 -d 7 -p cbr -e 1000 -c 1 -i 82 -a 1 -x {0.13 7.1 -1 ------- null}
- -t 0.0088 -s 0 -d 8 -p cbr -e 1000 -c 1 -i 83 -a 1 -x {0.15 8.1 1 ------- null}
h -t 0.0088 -s 0 -d 8 -p cbr -e 1000 -c 1 -i 83 -a 1 -x {0.15 8.1 -1 ------- null}
- -t 0.0088 -s 0 -d 9 -p cbr -e 1000 -c 1 -i 84 -a 1 -x {0.17 9.1 1 ------- null}
h -t 0.0088 -s 0 -d 9 -p cbr -e 1000 -c 1 -i 84 -a 1 -x {0.17 9.1 -1 ------- null}
- -t 0.0088 -s 0 -d 10 -p cbr -e 1000 -c 1 -i 85 -a 1 -x {0.19 10.1 1 ------- null}
h -t 0.0088 -s 0 -d 10 -p cbr -e 1000 -c 1 -i 85 -a 1 -x {0.19 10.1 -1 ------- null}
- -t 0.0088 -s 0 -d 11 -p cbr -e 1000 -c 1 -i 86 -a 1 -x {0.21 11.1 1 ------- null}
h -t 0.0088 -s 0 -d 11 -p cbr -e 1000 -c 1 -i 86 -a 1 -x {0.21 11.1 -1 ------- null}
- -t 0.0088 -s 0 -d 12 -p cbr -e 1000 -c 1 -i 87 -a 1 -x {0.23 12.1 1 ------- null}
h -t 0.0088 -s 0 -d 12 -p cbr -e 1000 -c 1 -i 87 -a 1 -x {0.23 12.1 -1 ------- null}
- -t 0.0088 -s 0 -d 13 -p cbr -e 1000 -c 1 -i 88 -a 1 -x {0.25 13.1 1 ------- null}
h -t 0.0088 -s 0 -d 13 -p cbr -e 1000 -c 1 -i 88 -a 1 -x {0.25 13.1 -1 ------- null}
- -t 0.0088 -s 0 -d 14 -p cbr -e 1000 -c 1 -i 89 -a 1 -x {0.27 14.1 1 ------- null}
h -t 0.0088 -s 0 -d 14 -p cbr -e 1000 -c 1 -i 89 -a 1 -x {0.27 14.1 -1 ------- null}
- -t 0.0088 -s 0 -d 15 -p cbr -e 1000 -c 1 -i 90 -a 1 -x {0.29 15.1 1 ------- null}
h -t 0.0088 -s 0 -d 15 -p cbr -e 1000 -c 1 -i 90 -a 1 -x {0.29 15.1 -1 ------- null}
- -t 0.0088 -s 0 -d 16 -p cbr -e 1000 -c 1 -i 91 -a 1 -x {0.31 16.1 1 ------- null}
h -t 0.0088 -s 0 -d 16 -p cbr -e 1000 -c 1 -i 91 -a 1 -x {0.31 16.1 -1 ------- null}
- -t 0.0088 -s 0 -d 17 -p cbr -e 1000 -c 1 -i 92 -a 1 -x {0.33 17.1 1 ------- null}
h -t 0.0088 -s 0 -d 17 -p cbr -e 1000 -c 1 -i 92 -a 1 -x {0.33 17.1 -1 ------- null}
- -t 0.0088 -s 0 -d 18 -p cbr -e 1000 -c 1 -i 93 -a 1 -x {0.35 18.1 1 ------- null}
h -t 0.0088 -s 0 -d 18 -p cbr -e 1000 -c 1 -i 93 -a 1 -x {0.35 18.1 -1 ------- null}
- -t 0.0088 -s 0 -d 19 -p cbr -e 1000 -c 1 -i 94 -a 1 -x {0.37 19.1 1 ------- null}
h -t 0.0088 -s 0 -d 19 -p cbr -e 1000 -c 1 -i 94 -a 1 -x {0.37 19.1 -1 ------- null}
- -t 0.0088 -s 0 -d 20 -p cbr -e 1000 -c 1 -i 95 -a 1 -x {0.39 20.1 1 ------- null}
h -t 0.0088 -s 0 -d 20 -p cbr -e 1000 -c 1 -i 95 -a 1 -x {0.39 20.1 -1 ------- null}
- -t 0.0088 -s 0 -d 21 -p cbr -e 1000 -c 1 -i 96 -a 1 -x {0.41 21.1 1 ------- null}
h -t 0.0088 -s 0 -d 21 -p cbr -e 1000 -c 1 -i 96 -a 1 -x {0.41 21.1 -1 ------- null}
- -t 0.0088 -s 0 -d 22 -p cbr -e 1000 -c 1 -i 97 -a 1 -x {0.43 22.1 1 ------- null}
h -t 0.0088 -s 0 -d 22 -p cbr -e 1000 -c 1 -i 97 -a 1 -x {0.43 22.1 -1 ------- null}
- -t 0.0088 -s 0 -d 23 -p cbr -e 1000 -c 1 -i 98 -a 1 -x {0.45 23.1 1 ------- null}
h -t 0.0088 -s 0 -d 23 -p cbr -e 1000 -c 1 -i 98 -a 1 -x {0.45 23.1 -1 ------- null}
- -t 0.0088 -s 0 -d 24 -p cbr -e 1000 -c 1 -i 99 -a 1 -x {0.47 24.1 1 ------- null}
h -t 0.0088 -s 0 -d 24 -p cbr -e 1000 -c 1 -i 99 -a 1 -x {0.47 24.1 -1 ------- null}
r -t 0.01532 -s 1 -d 0 -p tcp -e 40 -c 2 -i 0 -a 2 -x {1.0 0.0 0 ------- null}
+ -t 0.01532 -s 0 -d 1 -p ack -e 40 -c 2 -i 101 -a 2 -x {0.0 1.0 0 ------- null}
r -t 0.01532 -s 2 -d 0 -p tcp -e 40 -c 2 -i 2 -a 2 -x {2.0 0.2 0 ------- null}
+ -t 0.01532 -s 0 -d 2 -p ack -e 40 -c 2 -i 102 -a 2 -x {0.2 2.0 0 ------- null}
r -t 0.01532 -s 3 -d 0 -p tcp -e 40 -c 2 -i 4 -a 2 -x {3.0 0.4 0 ------- null}
+ -t 0.01532 -s 0 -d 3 -p ack -e 40 -c 2 -i 103 -a 2 -x {0.4 3.0 0 ------- null}
r -t 0.01532 -s 4 -d 0 -p tcp -e 40 -c 2 -i 6 -a 2 -x {4.0 0.6 0 ------- null}
+ -t 0.01532 -s 0 -d 4 -p ack -e 40 -c 2 -i 104 -a 2 -x {0.6 4.0 0 ------- null}
r -t 0.01532 -s 5 -d 0 -p tcp -e 40 -c 2 -i 8 -a 2 -x {5.0 0.8 0 ------- null}
+ -t 0.01532 -s 0 -d 5 -p ack -e 40 -c 2 -i 105 -a 2 -x {0.8 5.0 0 ------- null}
r -t 0.01532 -s 6 -d 0 -p tcp -e 40 -c 2 -i 10 -a 2 -x {6.0 0.10 0 ------- null}
+ -t 0.01532 -s 0 -d 6 -p ack -e 40 -c 2 -i 106 -a 2 -x {0.10 6.0 0 ------- null}
r -t 0.01532 -s 7 -d 0 -p tcp -e 40 -c 2 -i 12 -a 2 -x {7.0 0.12 0 ------- null}
+ -t 0.01532 -s 0 -d 7 -p ack -e 40 -c 2 -i 107 -a 2 -x {0.12 7.0 0 ------- null}
r -t 0.01532 -s 8 -d 0 -p tcp -e 40 -c 2 -i 14 -a 2 -x {8.0 0.14 0 ------- null}
+ -t 0.01532 -s 0 -d 8 -p ack -e 40 -c 2 -i 108 -a 2 -x {0.14 8.0 0 ------- null}
r -t 0.01532 -s 9 -d 0 -p tcp -e 40 -c 2 -i 16 -a 2 -x {9.0 0.16 0 ------- null}
+ -t 0.01532 -s 0 -d 9 -p ack -e 40 -c 2 -i 109 -a 2 -x {0.16 9.0 0 ------- null}
r -t 0.01532 -s 10 -d 0 -p tcp -e 40 -c 2 -i 18 -a 2 -x {10.0 0.18 0 ------- null}
+ -t 0.01532 -s 0 -d 10 -p ack -e 40 -c 2 -i 110 -a 2 -x {0.18 10.0 0 ------- null}
r -t 0.01532 -s 11 -d 0 -p tcp -e 40 -c 2 -i 20 -a 2 -x {11.0 0.20 0 ------- null}
+ -t 0.01532 -s 0 -d 11 -p ack -e 40 -c 2 -i 111 -a 2 -x {0.20 11.0 0 ------- null}
r -t 0.01532 -s 12 -d 0 -p tcp -e 40 -c 2 -i 22 -a 2 -x {12.0 0.22 0 ------- null}
+ -t 0.01532 -s 0 -d 12 -p ack -e 40 -c 2 -i 112 -a 2 -x {0.22 12.0 0 ------- null}
r -t 0.01532 -s 13 -d 0 -p tcp -e 40 -c 2 -i 24 -a 2 -x {13.0 0.24 0 ------- null}
+ -t 0.01532 -s 0 -d 13 -p ack -e 40 -c 2 -i 113 -a 2 -x {0.24 13.0 0 ------- null}
r -t 0.01532 -s 14 -d 0 -p tcp -e 40 -c 2 -i 26 -a 2 -x {14.0 0.26 0 ------- null}
+ -t 0.01532 -s 0 -d 14 -p ack -e 40 -c 2 -i 114 -a 2 -x {0.26 14.0 0 ------- null}
r -t 0.01532 -s 15 -d 0 -p tcp -e 40 -c 2 -i 28 -a 2 -x {15.0 0.28 0 ------- null}