+ 0 3 2 cbr 1000 ------- 2 3.0 4.1 0 0
- 0 3 2 cbr 1000 ------- 2 3.0 4.1 0 0
+ 0.008 3 2 cbr 1000 ------- 2 3.0 4.1 1 1
- 0.008 3 2 cbr 1000 ------- 2 3.0 4.1 1 1
r 0.014 3 2 cbr 1000 ------- 2 3.0 4.1 0 0
+ 0.014 2 0 cbr 1000 ------- 2 3.0 4.1 0 0
- 0.014 2 0 cbr 1000 ------- 2 3.0 4.1 0 0
+ 0.016 3 2 cbr 1000 ------- 2 3.0 4.1 2 2
- 0.016 3 2 cbr 1000 ------- 2 3.0 4.1 2 2
r 0.022 3 2 cbr 1000 ------- 2 3.0 4.1 1 1
+ 0.022 2 0 cbr 1000 ------- 2 3.0 4.1 1 1
- 0.022 2 0 cbr 1000 ------- 2 3.0 4.1 1 1
+ 0.024 3 2 cbr 1000 ------- 2 3.0 4.1 3 3
- 0.024 3 2 cbr 1000 ------- 2 3.0 4.1 3 3
r 0.029333 2 0 cbr 1000 ------- 2 3.0 4.1 0 0
+ 0.029333 0 4 cbr 1000 ------- 2 3.0 4.1 0 0
- 0.029333 0 4 cbr 1000 ------- 2 3.0 4.1 0 0
r 0.03 3 2 cbr 1000 ------- 2 3.0 4.1 2 2
+ 0.03 2 0 cbr 1000 ------- 2 3.0 4.1 2 2
- 0.03 2 0 cbr 1000 ------- 2 3.0 4.1 2 2
+ 0.032 3 2 cbr 1000 ------- 2 3.0 4.1 4 4
- 0.032 3 2 cbr 1000 ------- 2 3.0 4.1 4 4
r 0.037333 2 0 cbr 1000 ------- 2 3.0 4.1 1 1
+ 0.037333 0 4 cbr 1000 ------- 2 3.0 4.1 1 1
- 0.037333 0 4 cbr 1000 ------- 2 3.0 4.1 1 1
r 0.038 3 2 cbr 1000 ------- 2 3.0 4.1 3 3
+ 0.038 2 0 cbr 1000 ------- 2 3.0 4.1 3 3
- 0.038 2 0 cbr 1000 ------- 2 3.0 4.1 3 3
+ 0.04 3 2 cbr 1000 ------- 2 3.0 4.1 5 5
- 0.04 3 2 cbr 1000 ------- 2 3.0 4.1 5 5
r 0.043333 0 4 cbr 1000 ------- 2 3.0 4.1 0 0
r 0.045333 2 0 cbr 1000 ------- 2 3.0 4.1 2 2
+ 0.045333 0 4 cbr 1000 ------- 2 3.0 4.1 2 2
- 0.045333 0 4 cbr 1000 ------- 2 3.0 4.1 2 2
r 0.046 3 2 cbr 1000 ------- 2 3.0 4.1 4 4
+ 0.046 2 0 cbr 1000 ------- 2 3.0 4.1 4 4
- 0.046 2 0 cbr 1000 ------- 2 3.0 4.1 4 4
+ 0.048 3 2 cbr 1000 ------- 2 3.0 4.1 6 6
- 0.048 3 2 cbr 1000 ------- 2 3.0 4.1 6 6
r 0.051333 0 4 cbr 1000 ------- 2 3.0 4.1 1 1
r 0.053333 2 0 cbr 1000 ------- 2 3.0 4.1 3 3
+ 0.053333 0 4 cbr 1000 ------- 2 3.0 4.1 3 3
- 0.053333 0 4 cbr 1000 ------- 2 3.0 4.1 3 3
r 0.054 3 2 cbr 1000 ------- 2 3.0 4.1 5 5
+ 0.054 2 0 cbr 1000 ------- 2 3.0 4.1 5 5
- 0.054 2 0 cbr 1000 ------- 2 3.0 4.1 5 5
+ 0.056 3 2 cbr 1000 ------- 2 3.0 4.1 7 7
- 0.056 3 2 cbr 1000 ------- 2 3.0 4.1 7 7
r 0.059333 0 4 cbr 1000 ------- 2 3.0 4.1 2 2
r 0.061333 2 0 cbr 1000 ------- 2 3.0 4.1 4 4
+ 0.061333 0 4 cbr 1000 ------- 2 3.0 4.1 4 4
- 0.061333 0 4 cbr 1000 ------- 2 3.0 4.1 4 4
r 0.062 3 2 cbr 1000 ------- 2 3.0 4.1 6 6
+ 0.062 2 0 cbr 1000 ------- 2 3.0 4.1 6 6
- 0.062 2 0 cbr 1000 ------- 2 3.0 4.1 6 6
+ 0.064 3 2 cbr 1000 ------- 2 3.0 4.1 8 8
- 0.064 3 2 cbr 1000 ------- 2 3.0 4.1 8 8
r 0.067333 0 4 cbr 1000 ------- 2 3.0 4.1 3 3
r 0.069333 2 0 cbr 1000 ------- 2 3.0 4.1 5 5
+ 0.069333 0 4 cbr 1000 ------- 2 3.0 4.1 5 5
- 0.069333 0 4 cbr 1000 ------- 2 3.0 4.1 5 5
r 0.07 3 2 cbr 1000 ------- 2 3.0 4.1 7 7
+ 0.07 2 0 cbr 1000 ------- 2 3.0 4.1 7 7
- 0.07 2 0 cbr 1000 ------- 2 3.0 4.1 7 7
+ 0.072 3 2 cbr 1000 ------- 2 3.0 4.1 9 9
- 0.072 3 2 cbr 1000 ------- 2 3.0 4.1 9 9
r 0.075333 0 4 cbr 1000 ------- 2 3.0 4.1 4 4
r 0.077333 2 0 cbr 1000 ------- 2 3.0 4.1 6 6
+ 0.077333 0 4 cbr 1000 ------- 2 3.0 4.1 6 6
- 0.077333 0 4 cbr 1000 ------- 2 3.0 4.1 6 6
r 0.078 3 2 cbr 1000 ------- 2 3.0 4.1 8 8
+ 0.078 2 0 cbr 1000 ------- 2 3.0 4.1 8 8
- 0.078 2 0 cbr 1000 ------- 2 3.0 4.1 8 8
+ 0.08 3 2 cbr 1000 ------- 2 3.0 4.1 10 10
- 0.08 3 2 cbr 1000 ------- 2 3.0 4.1 10 10
r 0.083333 0 4 cbr 1000 ------- 2 3.0 4.1 5 5
r 0.085333 2 0 cbr 1000 ------- 2 3.0 4.1 7 7
+ 0.085333 0 4 cbr 1000 ------- 2 3.0 4.1 7 7
- 0.085333 0 4 cbr 1000 ------- 2 3.0 4.1 7 7
r 0.086 3 2 cbr 1000 ------- 2 3.0 4.1 9 9
+ 0.086 2 0 cbr 1000 ------- 2 3.0 4.1 9 9
- 0.086 2 0 cbr 1000 ------- 2 3.0 4.1 9 9
+ 0.088 3 2 cbr 1000 ------- 2 3.0 4.1 11 11
- 0.088 3 2 cbr 1000 ------- 2 3.0 4.1 11 11
r 0.091333 0 4 cbr 1000 ------- 2 3.0 4.1 6 6
r 0.093333 2 0 cbr 1000 ------- 2 3.0 4.1 8 8
+ 0.093333 0 4 cbr 1000 ------- 2 3.0 4.1 8 8
- 0.093333 0 4 cbr 1000 ------- 2 3.0 4.1 8 8
r 0.094 3 2 cbr 1000 ------- 2 3.0 4.1 10 10
+ 0.094 2 0 cbr 1000 ------- 2 3.0 4.1 10 10
- 0.094 2 0 cbr 1000 ------- 2 3.0 4.1 10 10
+ 0.096 3 2 cbr 1000 ------- 2 3.0 4.1 12 12
- 0.096 3 2 cbr 1000 ------- 2 3.0 4.1 12 12
r 0.099333 0 4 cbr 1000 ------- 2 3.0 4.1 7 7
r 0.101333 2 0 cbr 1000 ------- 2 3.0 4.1 9 9
+ 0.101333 0 4 cbr 1000 ------- 2 3.0 4.1 9 9
- 0.101333 0 4 cbr 1000 ------- 2 3.0 4.1 9 9
r 0.102 3 2 cbr 1000 ------- 2 3.0 4.1 11 11
+ 0.102 2 0 cbr 1000 ------- 2 3.0 4.1 11 11
- 0.102 2 0 cbr 1000 ------- 2 3.0 4.1 11 11
+ 0.104 3 2 cbr 1000 ------- 2 3.0 4.1 13 13
- 0.104 3 2 cbr 1000 ------- 2 3.0 4.1 13 13
r 0.107333 0 4 cbr 1000 ------- 2 3.0 4.1 8 8
r 0.109333 2 0 cbr 1000 ------- 2 3.0 4.1 10 10
+ 0.109333 0 4 cbr 1000 ------- 2 3.0 4.1 10 10
- 0.109333 0 4 cbr 1000 ------- 2 3.0 4.1 10 10
r 0.11 3 2 cbr 1000 ------- 2 3.0 4.1 12 12
+ 0.11 2 0 cbr 1000 ------- 2 3.0 4.1 12 12
- 0.11 2 0 cbr 1000 ------- 2 3.0 4.1 12 12
+ 0.112 3 2 cbr 1000 ------- 2 3.0 4.1 14 14
- 0.112 3 2 cbr 1000 ------- 2 3.0 4.1 14 14
r 0.115333 0 4 cbr 1000 ------- 2 3.0 4.1 9 9
r 0.117333 2 0 cbr 1000 ------- 2 3.0 4.1 11 11
+ 0.117333 0 4 cbr 1000 ------- 2 3.0 4.1 11 11
- 0.117333 0 4 cbr 1000 ------- 2 3.0 4.1 11 11
r 0.118 3 2 cbr 1000 ------- 2 3.0 4.1 13 13
+ 0.118 2 0 cbr 1000 ------- 2 3.0 4.1 13 13
- 0.118 2 0 cbr 1000 ------- 2 3.0 4.1 13 13
+ 0.12 3 2 cbr 1000 ------- 2 3.0 4.1 15 15
- 0.12 3 2 cbr 1000 ------- 2 3.0 4.1 15 15
r 0.123333 0 4 cbr 1000 ------- 2 3.0 4.1 10 10
r 0.125333 2 0 cbr 1000 ------- 2 3.0 4.1 12 12
+ 0.125333 0 4 cbr 1000 ------- 2 3.0 4.1 12 12
- 0.125333 0 4 cbr 1000 ------- 2 3.0 4.1 12 12
r 0.126 3 2 cbr 1000 ------- 2 3.0 4.1 14 14
+ 0.126 2 0 cbr 1000 ------- 2 3.0 4.1 14 14
- 0.126 2 0 cbr 1000 ------- 2 3.0 4.1 14 14
+ 0.128 3 2 cbr 1000 ------- 2 3.0 4.1 16 16
- 0.128 3 2 cbr 1000 ------- 2 3.0 4.1 16 16
r 0.131333 0 4 cbr 1000 ------- 2 3.0 4.1 11 11
r 0.133333 2 0 cbr 1000 ------- 2 3.0 4.1 13 13
+ 0.133333 0 4 cbr 1000 ------- 2 3.0 4.1 13 13
- 0.133333 0 4 cbr 1000 ------- 2 3.0 4.1 13 13
r 0.134 3 2 cbr 1000 ------- 2 3.0 4.1 15 15
+ 0.134 2 0 cbr 1000 ------- 2 3.0 4.1 15 15
- 0.134 2 0 cbr 1000 ------- 2 3.0 4.1 15 15
+ 0.136 3 2 cbr 1000 ------- 2 3.0 4.1 17 17
- 0.136 3 2 cbr 1000 ------- 2 3.0 4.1 17 17
r 0.139333 0 4 cbr 1000 ------- 2 3.0 4.1 12 12
r 0.141333 2 0 cbr 1000 ------- 2 3.0 4.1 14 14
+ 0.141333 0 4 cbr 1000 ------- 2 3.0 4.1 14 14
- 0.141333 0 4 cbr 1000 ------- 2 3.0 4.1 14 14
r 0.142 3 2 cbr 1000 ------- 2 3.0 4.1 16 16
+ 0.142 2 0 cbr 1000 ------- 2 3.0 4.1 16 16
- 0.142 2 0 cbr 1000 ------- 2 3.0 4.1 16 16
+ 0.144 3 2 cbr 1000 ------- 2 3.0 4.1 18 18
- 0.144 3 2 cbr 1000 ------- 2 3.0 4.1 18 18
r 0.147333 0 4 cbr 1000 ------- 2 3.0 4.1 13 13
r 0.149333 2 0 cbr 1000 ------- 2 3.0 4.1 15 15
+ 0.149333 0 4 cbr 1000 ------- 2 3.0 4.1 15 15
- 0.149333 0 4 cbr 1000 ------- 2 3.0 4.1 15 15
r 0.15 3 2 cbr 1000 ------- 2 3.0 4.1 17 17
+ 0.15 2 0 cbr 1000 ------- 2 3.0 4.1 17 17
- 0.15 2 0 cbr 1000 ------- 2 3.0 4.1 17 17
+ 0.152 3 2 cbr 1000 ------- 2 3.0 4.1 19 19
- 0.152 3 2 cbr 1000 ------- 2 3.0 4.1 19 19
r 0.155333 0 4 cbr 1000 ------- 2 3.0 4.1 14 14
r 0.157333 2 0 cbr 1000 ------- 2 3.0 4.1 16 16
+ 0.157333 0 4 cbr 1000 ------- 2 3.0 4.1 16 16
- 0.157333 0 4 cbr 1000 ------- 2 3.0 4.1 16 16
r 0.158 3 2 cbr 1000 ------- 2 3.0 4.1 18 18
+ 0.158 2 0 cbr 1000 ------- 2 3.0 4.1 18 18
- 0.158 2 0 cbr 1000 ------- 2 3.0 4.1 18 18
+ 0.16 3 2 cbr 1000 ------- 2 3.0 4.1 20 20
- 0.16 3 2 cbr 1000 ------- 2 3.0 4.1 20 20
r 0.163333 0 4 cbr 1000 ------- 2 3.0 4.1 15 15
r 0.165333 2 0 cbr 1000 ------- 2 3.0 4.1 17 17
+ 0.165333 0 4 cbr 1000 ------- 2 3.0 4.1 17 17
- 0.165333 0 4 cbr 1000 ------- 2 3.0 4.1 17 17
r 0.166 3 2 cbr 1000 ------- 2 3.0 4.1 19 19
+ 0.166 2 0 cbr 1000 ------- 2 3.0 4.1 19 19
- 0.166 2 0 cbr 1000 ------- 2 3.0 4.1 19 19
+ 0.168 3 2 cbr 1000 ------- 2 3.0 4.1 21 21
- 0.168 3 2 cbr 1000 ------- 2 3.0 4.1 21 21
r 0.171333 0 4 cbr 1000 ------- 2 3.0 4.1 16 16
r 0.173333 2 0 cbr 1000 ------- 2 3.0 4.1 18 18
+ 0.173333 0 4 cbr 1000 ------- 2 3.0 4.1 18 18
- 0.173333 0 4 cbr 1000 ------- 2 3.0 4.1 18 18
r 0.174 3 2 cbr 1000 ------- 2 3.0 4.1 20 20
+ 0.174 2 0 cbr 1000 ------- 2 3.0 4.1 20 20
- 0.174 2 0 cbr 1000 ------- 2 3.0 4.1 20 20
+ 0.176 3 2 cbr 1000 ------- 2 3.0 4.1 22 22
- 0.176 3 2 cbr 1000 ------- 2 3.0 4.1 22 22
r 0.179333 0 4 cbr 1000 ------- 2 3.0 4.1 17 17
r 0.181333 2 0 cbr 1000 ------- 2 3.0 4.1 19 19
+ 0.181333 0 4 cbr 1000 ------- 2 3.0 4.1 19 19
- 0.181333 0 4 cbr 1000 ------- 2 3.0 4.1 19 19
r 0.182 3 2 cbr 1000 ------- 2 3.0 4.1 21 21
+ 0.182 2 0 cbr 1000 ------- 2 3.0 4.1 21 21
- 0.182 2 0 cbr 1000 ------- 2 3.0 4.1 21 21
+ 0.184 3 2 cbr 1000 ------- 2 3.0 4.1 23 23
- 0.184 3 2 cbr 1000 ------- 2 3.0 4.1 23 23
r 0.187333 0 4 cbr 1000 ------- 2 3.0 4.1 18 18
r 0.189333 2 0 cbr 1000 ------- 2 3.0 4.1 20 20
+ 0.189333 0 4 cbr 1000 ------- 2 3.0 4.1 20 20
- 0.189333 0 4 cbr 1000 ------- 2 3.0 4.1 20 20
r 0.19 3 2 cbr 1000 ------- 2 3.0 4.1 22 22
+ 0.19 2 0 cbr 1000 ------- 2 3.0 4.1 22 22
- 0.19 2 0 cbr 1000 ------- 2 3.0 4.1 22 22
+ 0.192 3 2 cbr 1000 ------- 2 3.0 4.1 24 24
- 0.192 3 2 cbr 1000 ------- 2 3.0 4.1 24 24
r 0.195333 0 4 cbr 1000 ------- 2 3.0 4.1 19 19
r 0.197333 2 0 cbr 1000 ------- 2 3.0 4.1 21 21
+ 0.197333 0 4 cbr 1000 ------- 2 3.0 4.1 21 21
- 0.197333 0 4 cbr 1000 ------- 2 3.0 4.1 21 21
r 0.198 3 2 cbr 1000 ------- 2 3.0 4.1 23 23
+ 0.198 2 0 cbr 1000 ------- 2 3.0 4.1 23 23
- 0.198 2 0 cbr 1000 ------- 2 3.0 4.1 23 23
+ 0.2 3 2 cbr 1000 ------- 2 3.0 4.1 25 25
- 0.2 3 2 cbr 1000 ------- 2 3.0 4.1 25 25
r 0.203333 0 4 cbr 1000 ------- 2 3.0 4.1 20 20
r 0.205333 2 0 cbr 1000 ------- 2 3.0 4.1 22 22
+ 0.205333 0 4 cbr 1000 ------- 2 3.0 4.1 22 22
- 0.205333 0 4 cbr 1000 ------- 2 3.0 4.1 22 22
r 0.206 3 2 cbr 1000 ------- 2 3.0 4.1 24 24
+ 0.206 2 0 cbr 1000 ------- 2 3.0 4.1 24 24
- 0.206 2 0 cbr 1000 ------- 2 3.0 4.1 24 24
+ 0.208 3 2 cbr 1000 ------- 2 3.0 4.1 26 26
- 0.208 3 2 cbr 1000 ------- 2 3.0 4.1 26 26
r 0.211333 0 4 cbr 1000 ------- 2 3.0 4.1 21 21
r 0.213333 2 0 cbr 1000 ------- 2 3.0 4.1 23 23
+ 0.213333 0 4 cbr 1000 ------- 2 3.0 4.1 23 23
- 0.213333 0 4 cbr 1000 ------- 2 3.0 4.1 23 23
r 0.214 3 2 cbr 1000 ------- 2 3.0 4.1 25 25
+ 0.214 2 0 cbr 1000 ------- 2 3.0 4.1 25 25
- 0.214 2 0 cbr 1000 ------- 2 3.0 4.1 25 25
+ 0.216 3 2 cbr 1000 ------- 2 3.0 4.1 27 27
- 0.216 3 2 cbr 1000 ------- 2 3.0 4.1 27 27
r 0.219333 0 4 cbr 1000 ------- 2 3.0 4.1 22 22
r 0.221333 2 0 cbr 1000 ------- 2 3.0 4.1 24 24
+ 0.221333 0 4 cbr 1000 ------- 2 3.0 4.1 24 24
- 0.221333 0 4 cbr 1000 ------- 2 3.0 4.1 24 24
r 0.222 3 2 cbr 1000 ------- 2 3.0 4.1 26 26
+ 0.222 2 0 cbr 1000 ------- 2 3.0 4.1 26 26
- 0.222 2 0 cbr 1000 ------- 2 3.0 4.1 26 26
+ 0.224 3 2 cbr 1000 ------- 2 3.0 4.1 28 28
- 0.224 3 2 cbr 1000 ------- 2 3.0 4.1 28 28
r 0.227333 0 4 cbr 1000 ------- 2 3.0 4.1 23 23
r 0.229333 2 0 cbr 1000 ------- 2 3.0 4.1 25 25
+ 0.229333 0 4 cbr 1000 ------- 2 3.0 4.1 25 25
- 0.229333 0 4 cbr 1000 ------- 2 3.0 4.1 25 25
r 0.23 3 2 cbr 1000 ------- 2 3.0 4.1 27 27
+ 0.23 2 0 cbr 1000 ------- 2 3.0 4.1 27 27
- 0.23 2 0 cbr 1000 ------- 2 3.0 4.1 27 27
+ 0.232 3 2 cbr 1000 ------- 2 3.0 4.1 29 29
- 0.232 3 2 cbr 1000 ------- 2 3.0 4.1 29 29
r 0.235333 0 4 cbr 1000 ------- 2 3.0 4.1 24 24
r 0.237333 2 0 cbr 1000 ------- 2 3.0 4.1 26 26
+ 0.237333 0 4 cbr 1000 ------- 2 3.0 4.1 26 26
- 0.237333 0 4 cbr 1000 ------- 2 3.0 4.1 26 26
r 0.238 3 2 cbr 1000 ------- 2 3.0 4.1 28 28
+ 0.238 2 0 cbr 1000 ------- 2 3.0 4.1 28 28
- 0.238 2 0 cbr 1000 ------- 2 3.0 4.1 28 28
+ 0.24 3 2 cbr 1000 ------- 2 3.0 4.1 30 30
- 0.24 3 2 cbr 1000 ------- 2 3.0 4.1 30 30
r 0.243333 0 4 cbr 1000 ------- 2 3.0 4.1 25 25
r 0.245333 2 0 cbr 1000 ------- 2 3.0 4.1 27 27
+ 0.245333 0 4 cbr 1000 ------- 2 3.0 4.1 27 27
- 0.245333 0 4 cbr 1000 ------- 2 3.0 4.1 27 27
r 0.246 3 2 cbr 1000 ------- 2 3.0 4.1 29 29
+ 0.246 2 0 cbr 1000 ------- 2 3.0 4.1 29 29
- 0.246 2 0 cbr 1000 ------- 2 3.0 4.1 29 29
+ 0.248 3 2 cbr 1000 ------- 2 3.0 4.1 31 31
- 0.248 3 2 cbr 1000 ------- 2 3.0 4.1 31 31
r 0.251333 0 4 cbr 1000 ------- 2 3.0 4.1 26 26
r 0.253333 2 0 cbr 1000 ------- 2 3.0 4.1 28 28
+ 0.253333 0 4 cbr 1000 ------- 2 3.0 4.1 28 28
- 0.253333 0 4 cbr 1000 ------- 2 3.0 4.1 28 28
r 0.254 3 2 cbr 1000 ------- 2 3.0 4.1 30 30
+ 0.254 2 0 cbr 1000 ------- 2 3.0 4.1 30 30
- 0.254 2 0 cbr 1000 ------- 2 3.0 4.1 30 30
+ 0.256 3 2 cbr 1000 ------- 2 3.0 4.1 32 32
- 0.256 3 2 cbr 1000 ------- 2 3.0 4.1 32 32
r 0.259333 0 4 cbr 1000 ------- 2 3.0 4.1 27 27
r 0.261333 2 0 cbr 1000 ------- 2 3.0 4.1 29 29
+ 0.261333 0 4 cbr 1000 ------- 2 3.0 4.1 29 29
- 0.261333 0 4 cbr 1000 ------- 2 3.0 4.1 29 29
r 0.262 3 2 cbr 1000 ------- 2 3.0 4.1 31 31
+ 0.262 2 0 cbr 1000 ------- 2 3.0 4.1 31 31
- 0.262 2 0 cbr 1000 ------- 2 3.0 4.1 31 31
+ 0.264 3 2 cbr 1000 ------- 2 3.0 4.1 33 33
- 0.264 3 2 cbr 1000 ------- 2 3.0 4.1 33 33
r 0.267333 0 4 cbr 1000 ------- 2 3.0 4.1 28 28
r 0.269333 2 0 cbr 1000 ------- 2 3.0 4.1 30 30
+ 0.269333 0 4 cbr 1000 ------- 2 3.0 4.1 30 30
- 0.269333 0 4 cbr 1000 ------- 2 3.0 4.1 30 30
r 0.27 3 2 cbr 1000 ------- 2 3.0 4.1 32 32
+ 0.27 2 0 cbr 1000 ------- 2 3.0 4.1 32 32
- 0.27 2 0 cbr 1000 ------- 2 3.0 4.1 32 32
+ 0.272 3 2 cbr 1000 ------- 2 3.0 4.1 34 34
- 0.272 3 2 cbr 1000 ------- 2 3.0 4.1 34 34
r 0.275333 0 4 cbr 1000 ------- 2 3.0 4.1 29 29
r 0.277333 2 0 cbr 1000 ------- 2 3.0 4.1 31 31
+ 0.277333 0 4 cbr 1000 ------- 2 3.0 4.1 31 31
- 0.277333 0 4 cbr 1000 ------- 2 3.0 4.1 31 31
r 0.278 3 2 cbr 1000 ------- 2 3.0 4.1 33 33
+ 0.278 2 0 cbr 1000 ------- 2 3.0 4.1 33 33
- 0.278 2 0 cbr 1000 ------- 2 3.0 4.1 33 33
+ 0.28 3 2 cbr 1000 ------- 2 3.0 4.1 35 35
- 0.28 3 2 cbr 1000 ------- 2 3.0 4.1 35 35
r 0.283333 0 4 cbr 1000 ------- 2 3.0 4.1 30 30
r 0.285333 2 0 cbr 1000 ------- 2 3.0 4.1 32 32
+ 0.285333 0 4 cbr 1000 ------- 2 3.0 4.1 32 32
- 0.285333 0 4 cbr 1000 ------- 2 3.0 4.1 32 32
r 0.286 3 2 cbr 1000 ------- 2 3.0 4.1 34 34
+ 0.286 2 0 cbr 1000 ------- 2 3.0 4.1 34 34
- 0.286 2 0 cbr 1000 ------- 2 3.0 4.1 34 34
+ 0.288 3 2 cbr 1000 ------- 2 3.0 4.1 36 36
- 0.288 3 2 cbr 1000 ------- 2 3.0 4.1 36 36
r 0.291333 0 4 cbr 1000 ------- 2 3.0 4.1 31 31
r 0.293333 2 0 cbr 1000 ------- 2 3.0 4.1 33 33
+ 0.293333 0 4 cbr 1000 ------- 2 3.0 4.1 33 33
- 0.293333 0 4 cbr 1000 ------- 2 3.0 4.1 33 33
r 0.294 3 2 cbr 1000 ------- 2 3.0 4.1 35 35
+ 0.294 2 0 cbr 1000 ------- 2 3.0 4.1 35 35
- 0.294 2 0 cbr 1000 ------- 2 3.0 4.1 35 35
+ 0.296 3 2 cbr 1000 ------- 2 3.0 4.1 37 37
- 0.296 3 2 cbr 1000 ------- 2 3.0 4.1 37 37
r 0.299333 0 4 cbr 1000 ------- 2 3.0 4.1 32 32
+ 0.3 2 0 tcp 40 ------- 1 2.0 4.0 0 38
- 0.3 2 0 tcp 40 ------- 1 2.0 4.0 0 38
r 0.301333 2 0 cbr 1000 ------- 2 3.0 4.1 34 34
+ 0.301333 0 4 cbr 1000 ------- 2 3.0 4.1 34 34
- 0.301333 0 4 cbr 1000 ------- 2 3.0 4.1 34 34
r 0.302 3 2 cbr 1000 ------- 2 3.0 4.1 36 36
+ 0.302 2 0 cbr 1000 ------- 2 3.0 4.1 36 36
- 0.302 2 0 cbr 1000 ------- 2 3.0 4.1 36 36
+ 0.304 3 2 cbr 1000 ------- 2 3.0 4.1 38 39
- 0.304 3 2 cbr 1000 ------- 2 3.0 4.1 38 39
r 0.307333 0 4 cbr 1000 ------- 2 3.0 4.1 33 33
r 0.309333 2 0 cbr 1000 ------- 2 3.0 4.1 35 35
+ 0.309333 0 4 cbr 1000 ------- 2 3.0 4.1 35 35
- 0.309333 0 4 cbr 1000 ------- 2 3.0 4.1 35 35
r 0.31 3 2 cbr 1000 ------- 2 3.0 4.1 37 37
+ 0.31 2 0 cbr 1000 ------- 2 3.0 4.1 37 37
- 0.31 2 0 cbr 1000 ------- 2 3.0 4.1 37 37
r 0.310213 2 0 tcp 40 ------- 1 2.0 4.0 0 38
+ 0.310213 0 4 tcp 40 ------- 1 2.0 4.0 0 38
+ 0.312 3 2 cbr 1000 ------- 2 3.0 4.1 39 40
- 0.312 3 2 cbr 1000 ------- 2 3.0 4.1 39 40
- 0.313333 0 4 tcp 40 ------- 1 2.0 4.0 0 38
r 0.315333 0 4 cbr 1000 ------- 2 3.0 4.1 34 34
r 0.317333 2 0 cbr 1000 ------- 2 3.0 4.1 36 36
+ 0.317333 0 4 cbr 1000 ------- 2 3.0 4.1 36 36
- 0.317333 0 4 cbr 1000 ------- 2 3.0 4.1 36 36
r 0.318 3 2 cbr 1000 ------- 2 3.0 4.1 38 39
+ 0.318 2 0 cbr 1000 ------- 2 3.0 4.1 38 39
- 0.318 2 0 cbr 1000 ------- 2 3.0 4.1 38 39
+ 0.32 3 2 cbr 1000 ------- 2 3.0 4.1 40 41
- 0.32 3 2 cbr 1000 ------- 2 3.0 4.1 40 41
r 0.323333 0 4 cbr 1000 ------- 2 3.0 4.1 35 35
r 0.323493 0 4 tcp 40 ------- 1 2.0 4.0 0 38
+ 0.323493 4 0 ack 40 ------- 1 4.0 2.0 0 42
- 0.323493 4 0 ack 40 ------- 1 4.0 2.0 0 42
r 0.325333 2 0 cbr 1000 ------- 2 3.0 4.1 37 37
+ 0.325333 0 4 cbr 1000 ------- 2 3.0 4.1 37 37
- 0.325333 0 4 cbr 1000 ------- 2 3.0 4.1 37 37
r 0.326 3 2 cbr 1000 ------- 2 3.0 4.1 39 40
+ 0.326 2 0 cbr 1000 ------- 2 3.0 4.1 39 40
- 0.326 2 0 cbr 1000 ------- 2 3.0 4.1 39 40
+ 0.328 3 2 cbr 1000 ------- 2 3.0 4.1 41 43
- 0.328 3 2 cbr 1000 ------- 2 3.0 4.1 41 43
r 0.331333 0 4 cbr 1000 ------- 2 3.0 4.1 36 36
r 0.333333 2 0 cbr 1000 ------- 2 3.0 4.1 38 39
+ 0.333333 0 4 cbr 1000 ------- 2 3.0 4.1 38 39
- 0.333333 0 4 cbr 1000 ------- 2 3.0 4.1 38 39
r 0.333653 4 0 ack 40 ------- 1 4.0 2.0 0 42
+ 0.333653 0 2 ack 40 ------- 1 4.0 2.0 0 42
- 0.333653 0 2 ack 40 ------- 1 4.0 2.0 0 42
r 0.334 3 2 cbr 1000 ------- 2 3.0 4.1 40 41
+ 0.334 2 0 cbr 1000 ------- 2 3.0 4.1 40 41
- 0.334 2 0 cbr 1000 ------- 2 3.0 4.1 40 41
+ 0.336 3 2 cbr 1000 ------- 2 3.0 4.1 42 44
- 0.336 3 2 cbr 1000 ------- 2 3.0 4.1 42 44
r 0.339333 0 4 cbr 1000 ------- 2 3.0 4.1 37 37
r 0.341333 2 0 cbr 1000 ------- 2 3.0 4.1 39 40
+ 0.341333 0 4 cbr 1000 ------- 2 3.0 4.1 39 40
- 0.341333 0 4 cbr 1000 ------- 2 3.0 4.1 39 40
r 0.342 3 2 cbr 1000 ------- 2 3.0 4.1 41 43
+ 0.342 2 0 cbr 1000 ------- 2 3.0 4.1 41 43
- 0.342 2 0 cbr 1000 ------- 2 3.0 4.1 41 43
r 0.343867 0 2 ack 40 ------- 1 4.0 2.0 0 42
+ 0.343867 2 0 tcp 1040 ------- 1 2.0 4.0 1 45
+ 0.343867 2 0 tcp 1040 ------- 1 2.0 4.0 2 46
+ 0.344 3 2 cbr 1000 ------- 2 3.0 4.1 43 47
- 0.344 3 2 cbr 1000 ------- 2 3.0 4.1 43 47
r 0.347333 0 4 cbr 1000 ------- 2 3.0 4.1 38 39
- 0.347333 2 0 tcp 1040 ------- 1 2.0 4.0 1 45
r 0.349333 2 0 cbr 1000 ------- 2 3.0 4.1 40 41
+ 0.349333 0 4 cbr 1000 ------- 2 3.0 4.1 40 41
- 0.349333 0 4 cbr 1000 ------- 2 3.0 4.1 40 41
r 0.35 3 2 cbr 1000 ------- 2 3.0 4.1 42 44
+ 0.35 2 0 cbr 1000 ------- 2 3.0 4.1 42 44
+ 0.352 3 2 cbr 1000 ------- 2 3.0 4.1 44 48
- 0.352 3 2 cbr 1000 ------- 2 3.0 4.1 44 48
- 0.35288 2 0 tcp 1040 ------- 1 2.0 4.0 2 46
r 0.355333 0 4 cbr 1000 ------- 2 3.0 4.1 39 40
r 0.357333 2 0 cbr 1000 ------- 2 3.0 4.1 41 43
+ 0.357333 0 4 cbr 1000 ------- 2 3.0 4.1 41 43
- 0.357333 0 4 cbr 1000 ------- 2 3.0 4.1 41 43
r 0.358 3 2 cbr 1000 ------- 2 3.0 4.1 43 47
+ 0.358 2 0 cbr 1000 ------- 2 3.0 4.1 43 47
- 0.358427 2 0 cbr 1000 ------- 2 3.0 4.1 42 44
+ 0.36 3 2 cbr 1000 ------- 2 3.0 4.1 45 49
- 0.36 3 2 cbr 1000 ------- 2 3.0 4.1 45 49
r 0.36288 2 0 tcp 1040 ------- 1 2.0 4.0 1 45
+ 0.36288 0 4 tcp 1040 ------- 1 2.0 4.0 1 45
- 0.36288 0 4 tcp 1040 ------- 1 2.0 4.0 1 45
r 0.363333 0 4 cbr 1000 ------- 2 3.0 4.1 40 41
- 0.36376 2 0 cbr 1000 ------- 2 3.0 4.1 43 47
r 0.366 3 2 cbr 1000 ------- 2 3.0 4.1 44 48
+ 0.366 2 0 cbr 1000 ------- 2 3.0 4.1 44 48
+ 0.368 3 2 cbr 1000 ------- 2 3.0 4.1 46 50
- 0.368 3 2 cbr 1000 ------- 2 3.0 4.1 46 50
r 0.368427 2 0 tcp 1040 ------- 1 2.0 4.0 2 46
+ 0.368427 0 4 tcp 1040 ------- 1 2.0 4.0 2 46
- 0.368427 0 4 tcp 1040 ------- 1 2.0 4.0 2 46
- 0.369093 2 0 cbr 1000 ------- 2 3.0 4.1 44 48
r 0.371333 0 4 cbr 1000 ------- 2 3.0 4.1 41 43
r 0.37376 2 0 cbr 1000 ------- 2 3.0 4.1 42 44
+ 0.37376 0 4 cbr 1000 ------- 2 3.0 4.1 42 44
- 0.37376 0 4 cbr 1000 ------- 2 3.0 4.1 42 44
r 0.374 3 2 cbr 1000 ------- 2 3.0 4.1 45 49
+ 0.374 2 0 cbr 1000 ------- 2 3.0 4.1 45 49
- 0.374427 2 0 cbr 1000 ------- 2 3.0 4.1 45 49
+ 0.376 3 2 cbr 1000 ------- 2 3.0 4.1 47 51
- 0.376 3 2 cbr 1000 ------- 2 3.0 4.1 47 51
r 0.37704 0 4 tcp 1040 ------- 1 2.0 4.0 1 45
+ 0.37704 4 0 ack 40 ------- 1 4.0 2.0 1 52
- 0.37704 4 0 ack 40 ------- 1 4.0 2.0 1 52
r 0.379093 2 0 cbr 1000 ------- 2 3.0 4.1 43 47
+ 0.379093 0 4 cbr 1000 ------- 2 3.0 4.1 43 47
- 0.379093 0 4 cbr 1000 ------- 2 3.0 4.1 43 47
r 0.382 3 2 cbr 1000 ------- 2 3.0 4.1 46 50
+ 0.382 2 0 cbr 1000 ------- 2 3.0 4.1 46 50
- 0.382 2 0 cbr 1000 ------- 2 3.0 4.1 46 50
r 0.382587 0 4 tcp 1040 ------- 1 2.0 4.0 2 46
+ 0.382587 4 0 ack 40 ------- 1 4.0 2.0 2 53
- 0.382587 4 0 ack 40 ------- 1 4.0 2.0 2 53
+ 0.384 3 2 cbr 1000 ------- 2 3.0 4.1 48 54
- 0.384 3 2 cbr 1000 ------- 2 3.0 4.1 48 54
r 0.384427 2 0 cbr 1000 ------- 2 3.0 4.1 44 48
+ 0.384427 0 4 cbr 1000 ------- 2 3.0 4.1 44 48
- 0.384427 0 4 cbr 1000 ------- 2 3.0 4.1 44 48
r 0.3872 4 0 ack 40 ------- 1 4.0 2.0 1 52
+ 0.3872 0 2 ack 40 ------- 1 4.0 2.0 1 52
- 0.3872 0 2 ack 40 ------- 1 4.0 2.0 1 52
r 0.38776 0 4 cbr 1000 ------- 2 3.0 4.1 42 44
r 0.38976 2 0 cbr 1000 ------- 2 3.0 4.1 45 49
+ 0.38976 0 4 cbr 1000 ------- 2 3.0 4.1 45 49
- 0.38976 0 4 cbr 1000 ------- 2 3.0 4.1 45 49
r 0.39 3 2 cbr 1000 ------- 2 3.0 4.1 47 51
+ 0.39 2 0 cbr 1000 ------- 2 3.0 4.1 47 51
- 0.39 2 0 cbr 1000 ------- 2 3.0 4.1 47 51
+ 0.392 3 2 cbr 1000 ------- 2 3.0 4.1 49 55
- 0.392 3 2 cbr 1000 ------- 2 3.0 4.1 49 55
r 0.392747 4 0 ack 40 ------- 1 4.0 2.0 2 53
+ 0.392747 0 2 ack 40 ------- 1 4.0 2.0 2 53
- 0.392747 0 2 ack 40 ------- 1 4.0 2.0 2 53
r 0.393093 0 4 cbr 1000 ------- 2 3.0 4.1 43 47
r 0.397333 2 0 cbr 1000 ------- 2 3.0 4.1 46 50
+ 0.397333 0 4 cbr 1000 ------- 2 3.0 4.1 46 50
- 0.397333 0 4 cbr 1000 ------- 2 3.0 4.1 46 50
r 0.397413 0 2 ack 40 ------- 1 4.0 2.0 1 52
+ 0.397413 2 0 tcp 1040 ------- 1 2.0 4.0 3 56
- 0.397413 2 0 tcp 1040 ------- 1 2.0 4.0 3 56
+ 0.397413 2 0 tcp 1040 ------- 1 2.0 4.0 4 57
r 0.398 3 2 cbr 1000 ------- 2 3.0 4.1 48 54
+ 0.398 2 0 cbr 1000 ------- 2 3.0 4.1 48 54
r 0.398427 0 4 cbr 1000 ------- 2 3.0 4.1 44 48
+ 0.4 3 2 cbr 1000 ------- 2 3.0 4.1 50 58
- 0.4 3 2 cbr 1000 ------- 2 3.0 4.1 50 58
r 0.40296 0 2 ack 40 ------- 1 4.0 2.0 2 53
+ 0.40296 2 0 tcp 1040 ------- 1 2.0 4.0 5 59
+ 0.40296 2 0 tcp 1040 ------- 1 2.0 4.0 6 60
- 0.40296 2 0 tcp 1040 ------- 1 2.0 4.0 4 57
r 0.40376 0 4 cbr 1000 ------- 2 3.0 4.1 45 49
r 0.405333 2 0 cbr 1000 ------- 2 3.0 4.1 47 51
+ 0.405333 0 4 cbr 1000 ------- 2 3.0 4.1 47 51
- 0.405333 0 4 cbr 1000 ------- 2 3.0 4.1 47 51
r 0.406 3 2 cbr 1000 ------- 2 3.0 4.1 49 55
+ 0.406 2 0 cbr 1000 ------- 2 3.0 4.1 49 55
+ 0.408 3 2 cbr 1000 ------- 2 3.0 4.1 51 61
- 0.408 3 2 cbr 1000 ------- 2 3.0 4.1 51 61
- 0.408507 2 0 cbr 1000 ------- 2 3.0 4.1 48 54
r 0.411333 0 4 cbr 1000 ------- 2 3.0 4.1 46 50
r 0.41296 2 0 tcp 1040 ------- 1 2.0 4.0 3 56
+ 0.41296 0 4 tcp 1040 ------- 1 2.0 4.0 3 56
- 0.41296 0 4 tcp 1040 ------- 1 2.0 4.0 3 56
- 0.41384 2 0 tcp 1040 ------- 1 2.0 4.0 5 59
r 0.414 3 2 cbr 1000 ------- 2 3.0 4.1 50 58
+ 0.414 2 0 cbr 1000 ------- 2 3.0 4.1 50 58
+ 0.416 3 2 cbr 1000 ------- 2 3.0 4.1 52 62
- 0.416 3 2 cbr 1000 ------- 2 3.0 4.1 52 62
r 0.418507 2 0 tcp 1040 ------- 1 2.0 4.0 4 57
+ 0.418507 0 4 tcp 1040 ------- 1 2.0 4.0 4 57
- 0.418507 0 4 tcp 1040 ------- 1 2.0 4.0 4 57
r 0.419333 0 4 cbr 1000 ------- 2 3.0 4.1 47 51
- 0.419387 2 0 tcp 1040 ------- 1 2.0 4.0 6 60
r 0.422 3 2 cbr 1000 ------- 2 3.0 4.1 51 61
+ 0.422 2 0 cbr 1000 ------- 2 3.0 4.1 51 61
r 0.42384 2 0 cbr 1000 ------- 2 3.0 4.1 48 54
+ 0.42384 0 4 cbr 1000 ------- 2 3.0 4.1 48 54
- 0.42384 0 4 cbr 1000 ------- 2 3.0 4.1 48 54
+ 0.424 3 2 cbr 1000 ------- 2 3.0 4.1 53 63
- 0.424 3 2 cbr 1000 ------- 2 3.0 4.1 53 63
- 0.424933 2 0 cbr 1000 ------- 2 3.0 4.1 49 55
r 0.42712 0 4 tcp 1040 ------- 1 2.0 4.0 3 56
+ 0.42712 4 0 ack 40 ------- 1 4.0 2.0 3 64
- 0.42712 4 0 ack 40 ------- 1 4.0 2.0 3 64
r 0.429387 2 0 tcp 1040 ------- 1 2.0 4.0 5 59
+ 0.429387 0 4 tcp 1040 ------- 1 2.0 4.0 5 59
- 0.429387 0 4 tcp 1040 ------- 1 2.0 4.0 5 59
r 0.43 3 2 cbr 1000 ------- 2 3.0 4.1 52 62
+ 0.43 2 0 cbr 1000 ------- 2 3.0 4.1 52 62
- 0.430267 2 0 cbr 1000 ------- 2 3.0 4.1 50 58
+ 0.432 3 2 cbr 1000 ------- 2 3.0 4.1 54 65
- 0.432 3 2 cbr 1000 ------- 2 3.0 4.1 54 65
r 0.432667 0 4 tcp 1040 ------- 1 2.0 4.0 4 57
+ 0.432667 4 0 ack 40 ------- 1 4.0 2.0 4 66
- 0.432667 4 0 ack 40 ------- 1 4.0 2.0 4 66
r 0.434933 2 0 tcp 1040 ------- 1 2.0 4.0 6 60
+ 0.434933 0 4 tcp 1040 ------- 1 2.0 4.0 6 60
- 0.434933 0 4 tcp 1040 ------- 1 2.0 4.0 6 60
- 0.4356 2 0 cbr 1000 ------- 2 3.0 4.1 51 61
r 0.43728 4 0 ack 40 ------- 1 4.0 2.0 3 64
+ 0.43728 0 2 ack 40 ------- 1 4.0 2.0 3 64
- 0.43728 0 2 ack 40 ------- 1 4.0 2.0 3 64
r 0.43784 0 4 cbr 1000 ------- 2 3.0 4.1 48 54
r 0.438 3 2 cbr 1000 ------- 2 3.0 4.1 53 63
+ 0.438 2 0 cbr 1000 ------- 2 3.0 4.1 53 63
+ 0.44 3 2 cbr 1000 ------- 2 3.0 4.1 55 67
- 0.44 3 2 cbr 1000 ------- 2 3.0 4.1 55 67
r 0.440267 2 0 cbr 1000 ------- 2 3.0 4.1 49 55
+ 0.440267 0 4 cbr 1000 ------- 2 3.0 4.1 49 55
- 0.440267 0 4 cbr 1000 ------- 2 3.0 4.1 49 55
- 0.440933 2 0 cbr 1000 ------- 2 3.0 4.1 52 62
r 0.442827 4 0 ack 40 ------- 1 4.0 2.0 4 66
+ 0.442827 0 2 ack 40 ------- 1 4.0 2.0 4 66
- 0.442827 0 2 ack 40 ------- 1 4.0 2.0 4 66
r 0.443547 0 4 tcp 1040 ------- 1 2.0 4.0 5 59
+ 0.443547 4 0 ack 40 ------- 1 4.0 2.0 5 68
- 0.443547 4 0 ack 40 ------- 1 4.0 2.0 5 68
r 0.4456 2 0 cbr 1000 ------- 2 3.0 4.1 50 58
+ 0.4456 0 4 cbr 1000 ------- 2 3.0 4.1 50 58
- 0.4456 0 4 cbr 1000 ------- 2 3.0 4.1 50 58
r 0.446 3 2 cbr 1000 ------- 2 3.0 4.1 54 65
+ 0.446 2 0 cbr 1000 ------- 2 3.0 4.1 54 65
- 0.446267 2 0 cbr 1000 ------- 2 3.0 4.1 53 63
r 0.447493 0 2 ack 40 ------- 1 4.0 2.0 3 64
+ 0.447493 2 0 tcp 1040 ------- 1 2.0 4.0 7 69
+ 0.447493 2 0 tcp 1040 ------- 1 2.0 4.0 8 70
+ 0.448 3 2 cbr 1000 ------- 2 3.0 4.1 56 71
- 0.448 3 2 cbr 1000 ------- 2 3.0 4.1 56 71
r 0.449093 0 4 tcp 1040 ------- 1 2.0 4.0 6 60
+ 0.449093 4 0 ack 40 ------- 1 4.0 2.0 6 72
- 0.449093 4 0 ack 40 ------- 1 4.0 2.0 6 72
r 0.450933 2 0 cbr 1000 ------- 2 3.0 4.1 51 61
+ 0.450933 0 4 cbr 1000 ------- 2 3.0 4.1 51 61
- 0.450933 0 4 cbr 1000 ------- 2 3.0 4.1 51 61
- 0.4516 2 0 cbr 1000 ------- 2 3.0 4.1 54 65
r 0.45304 0 2 ack 40 ------- 1 4.0 2.0 4 66
+ 0.45304 2 0 tcp 1040 ------- 1 2.0 4.0 9 73
+ 0.45304 2 0 tcp 1040 ------- 1 2.0 4.0 10 74
r 0.453707 4 0 ack 40 ------- 1 4.0 2.0 5 68
+ 0.453707 0 2 ack 40 ------- 1 4.0 2.0 5 68
- 0.453707 0 2 ack 40 ------- 1 4.0 2.0 5 68
r 0.454 3 2 cbr 1000 ------- 2 3.0 4.1 55 67
+ 0.454 2 0 cbr 1000 ------- 2 3.0 4.1 55 67
r 0.454267 0 4 cbr 1000 ------- 2 3.0 4.1 49 55
+ 0.456 3 2 cbr 1000 ------- 2 3.0 4.1 57 75
- 0.456 3 2 cbr 1000 ------- 2 3.0 4.1 57 75
r 0.456267 2 0 cbr 1000 ------- 2 3.0 4.1 52 62
+ 0.456267 0 4 cbr 1000 ------- 2 3.0 4.1 52 62
- 0.456267 0 4 cbr 1000 ------- 2 3.0 4.1 52 62
- 0.456933 2 0 tcp 1040 ------- 1 2.0 4.0 7 69
r 0.459253 4 0 ack 40 ------- 1 4.0 2.0 6 72
+ 0.459253 0 2 ack 40 ------- 1 4.0 2.0 6 72
- 0.459253 0 2 ack 40 ------- 1 4.0 2.0 6 72
r 0.4596 0 4 cbr 1000 ------- 2 3.0 4.1 50 58
r 0.4616 2 0 cbr 1000 ------- 2 3.0 4.1 53 63
+ 0.4616 0 4 cbr 1000 ------- 2 3.0 4.1 53 63
- 0.4616 0 4 cbr 1000 ------- 2 3.0 4.1 53 63
r 0.462 3 2 cbr 1000 ------- 2 3.0 4.1 56 71
+ 0.462 2 0 cbr 1000 ------- 2 3.0 4.1 56 71
- 0.46248 2 0 tcp 1040 ------- 1 2.0 4.0 8 70
r 0.46392 0 2 ack 40 ------- 1 4.0 2.0 5 68
+ 0.46392 2 0 tcp 1040 ------- 1 2.0 4.0 11 76
+ 0.46392 2 0 tcp 1040 ------- 1 2.0 4.0 12 77
+ 0.464 3 2 cbr 1000 ------- 2 3.0 4.1 58 78
- 0.464 3 2 cbr 1000 ------- 2 3.0 4.1 58 78
r 0.464933 0 4 cbr 1000 ------- 2 3.0 4.1 51 61
r 0.466933 2 0 cbr 1000 ------- 2 3.0 4.1 54 65
+ 0.466933 0 4 cbr 1000 ------- 2 3.0 4.1 54 65
- 0.466933 0 4 cbr 1000 ------- 2 3.0 4.1 54 65
- 0.468027 2 0 tcp 1040 ------- 1 2.0 4.0 9 73
r 0.469467 0 2 ack 40 ------- 1 4.0 2.0 6 72
+ 0.469467 2 0 tcp 1040 ------- 1 2.0 4.0 13 79
+ 0.469467 2 0 tcp 1040 ------- 1 2.0 4.0 14 80
d 0.469467 2 0 tcp 1040 ------- 1 2.0 4.0 14 80
r 0.47 3 2 cbr 1000 ------- 2 3.0 4.1 57 75
+ 0.47 2 0 cbr 1000 ------- 2 3.0 4.1 57 75
d 0.47 2 0 cbr 1000 ------- 2 3.0 4.1 57 75
r 0.470267 0 4 cbr 1000 ------- 2 3.0 4.1 52 62
+ 0.472 3 2 cbr 1000 ------- 2 3.0 4.1 59 81
- 0.472 3 2 cbr 1000 ------- 2 3.0 4.1 59 81
r 0.47248 2 0 tcp 1040 ------- 1 2.0 4.0 7 69
+ 0.47248 0 4 tcp 1040 ------- 1 2.0 4.0 7 69
- 0.47248 0 4 tcp 1040 ------- 1 2.0 4.0 7 69
- 0.473573 2 0 tcp 1040 ------- 1 2.0 4.0 10 74
r 0.4756 0 4 cbr 1000 ------- 2 3.0 4.1 53 63
r 0.478 3 2 cbr 1000 ------- 2 3.0 4.1 58 78
+ 0.478 2 0 cbr 1000 ------- 2 3.0 4.1 58 78
r 0.478027 2 0 tcp 1040 ------- 1 2.0 4.0 8 70
+ 0.478027 0 4 tcp 1040 ------- 1 2.0 4.0 8 70
- 0.478027 0 4 tcp 1040 ------- 1 2.0 4.0 8 70
- 0.47912 2 0 cbr 1000 ------- 2 3.0 4.1 55 67
+ 0.48 3 2 cbr 1000 ------- 2 3.0 4.1 60 82
- 0.48 3 2 cbr 1000 ------- 2 3.0 4.1 60 82
r 0.480933 0 4 cbr 1000 ------- 2 3.0 4.1 54 65
r 0.483573 2 0 tcp 1040 ------- 1 2.0 4.0 9 73
+ 0.483573 0 4 tcp 1040 ------- 1 2.0 4.0 9 73
- 0.483573 0 4 tcp 1040 ------- 1 2.0 4.0 9 73
- 0.484453 2 0 cbr 1000 ------- 2 3.0 4.1 56 71
r 0.486 3 2 cbr 1000 ------- 2 3.0 4.1 59 81
+ 0.486 2 0 cbr 1000 ------- 2 3.0 4.1 59 81
r 0.48664 0 4 tcp 1040 ------- 1 2.0 4.0 7 69
+ 0.48664 4 0 ack 40 ------- 1 4.0 2.0 7 83
- 0.48664 4 0 ack 40 ------- 1 4.0 2.0 7 83
+ 0.488 3 2 cbr 1000 ------- 2 3.0 4.1 61 84
- 0.488 3 2 cbr 1000 ------- 2 3.0 4.1 61 84
r 0.48912 2 0 tcp 1040 ------- 1 2.0 4.0 10 74
+ 0.48912 0 4 tcp 1040 ------- 1 2.0 4.0 10 74
- 0.48912 0 4 tcp 1040 ------- 1 2.0 4.0 10 74
- 0.489787 2 0 tcp 1040 ------- 1 2.0 4.0 11 76
r 0.492187 0 4 tcp 1040 ------- 1 2.0 4.0 8 70
+ 0.492187 4 0 ack 40 ------- 1 4.0 2.0 8 85
- 0.492187 4 0 ack 40 ------- 1 4.0 2.0 8 85
r 0.494 3 2 cbr 1000 ------- 2 3.0 4.1 60 82
+ 0.494 2 0 cbr 1000 ------- 2 3.0 4.1 60 82
r 0.494453 2 0 cbr 1000 ------- 2 3.0 4.1 55 67
+ 0.494453 0 4 cbr 1000 ------- 2 3.0 4.1 55 67
- 0.494453 0 4 cbr 1000 ------- 2 3.0 4.1 55 67
- 0.495333 2 0 tcp 1040 ------- 1 2.0 4.0 12 77
+ 0.496 3 2 cbr 1000 ------- 2 3.0 4.1 62 86
- 0.496 3 2 cbr 1000 ------- 2 3.0 4.1 62 86
r 0.4968 4 0 ack 40 ------- 1 4.0 2.0 7 83
+ 0.4968 0 2 ack 40 ------- 1 4.0 2.0 7 83
- 0.4968 0 2 ack 40 ------- 1 4.0 2.0 7 83
r 0.497733 0 4 tcp 1040 ------- 1 2.0 4.0 9 73
+ 0.497733 4 0 ack 40 ------- 1 4.0 2.0 9 87
- 0.497733 4 0 ack 40 ------- 1 4.0 2.0 9 87
r 0.499787 2 0 cbr 1000 ------- 2 3.0 4.1 56 71
+ 0.499787 0 4 cbr 1000 ------- 2 3.0 4.1 56 71
- 0.499787 0 4 cbr 1000 ------- 2 3.0 4.1 56 71