V -t * -v 1.0a5 -a 0
A -t * -n 1 -p 0 -o 0x7fffffff -c 30 -a 1
A -t * -h 1 -m 1073741823 -s 0
c -t * -i 1 -n Blue
c -t * -i 2 -n Red
n -t * -a 4 -s 4 -S UP -v circle -c black -i black
n -t * -a 0 -s 0 -S UP -v circle -c black -i black
n -t * -a 1 -s 1 -S UP -v circle -c black -i black
n -t * -a 2 -s 2 -S UP -v circle -c black -i black
n -t * -a 3 -s 3 -S UP -v circle -c black -i black
l -t * -s 0 -d 2 -S UP -r 2000000 -D 0.01 -c black -o right-down
l -t * -s 1 -d 2 -S UP -r 2000000 -D 0.01 -c black -o right-up
l -t * -s 2 -d 3 -S UP -r 1500000 -D 0.01 -c black -o right
l -t * -s 0 -d 4 -S UP -r 2000000 -D 0.01 -c black -o left-down
l -t * -s 1 -d 4 -S UP -r 2000000 -D 0.01 -c black -o left-up
q -t * -s 3 -d 2 -a 0.5
q -t * -s 2 -d 3 -a 0.5
+ -t 0 -s 1 -d 2 -p cbr -e 1000 -c 2 -i 0 -a 2 -x {1.0 3.1 0 ------- null}
- -t 0 -s 1 -d 2 -p cbr -e 1000 -c 2 -i 0 -a 2 -x {1.0 3.1 0 ------- null}
h -t 0 -s 1 -d 2 -p cbr -e 1000 -c 2 -i 0 -a 2 -x {1.0 3.1 -1 ------- null}
+ -t 0 -s 1 -d 2 -p cbr -e 1000 -c 2 -i 1 -a 2 -x {1.0 3.1 1 ------- null}
+ -t 0 -s 1 -d 2 -p cbr -e 1000 -c 2 -i 2 -a 2 -x {1.0 3.1 2 ------- null}
- -t 0.004 -s 1 -d 2 -p cbr -e 1000 -c 2 -i 1 -a 2 -x {1.0 3.1 1 ------- null}
h -t 0.004 -s 1 -d 2 -p cbr -e 1000 -c 2 -i 1 -a 2 -x {1.0 3.1 -1 ------- null}
- -t 0.008 -s 1 -d 2 -p cbr -e 1000 -c 2 -i 2 -a 2 -x {1.0 3.1 2 ------- null}
h -t 0.008 -s 1 -d 2 -p cbr -e 1000 -c 2 -i 2 -a 2 -x {1.0 3.1 -1 ------- null}
r -t 0.014 -s 1 -d 2 -p cbr -e 1000 -c 2 -i 0 -a 2 -x {1.0 3.1 0 ------- null}
+ -t 0.014 -s 2 -d 3 -p cbr -e 1000 -c 2 -i 0 -a 2 -x {1.0 3.1 0 ------- null}
- -t 0.014 -s 2 -d 3 -p cbr -e 1000 -c 2 -i 0 -a 2 -x {1.0 3.1 0 ------- null}
h -t 0.014 -s 2 -d 3 -p cbr -e 1000 -c 2 -i 0 -a 2 -x {1.0 3.1 -1 ------- null}
r -t 0.018 -s 1 -d 2 -p cbr -e 1000 -c 2 -i 1 -a 2 -x {1.0 3.1 1 ------- null}
+ -t 0.018 -s 2 -d 3 -p cbr -e 1000 -c 2 -i 1 -a 2 -x {1.0 3.1 1 ------- null}
- -t 0.0193333333333333 -s 2 -d 3 -p cbr -e 1000 -c 2 -i 1 -a 2 -x {1.0 3.1 1 ------- null}
h -t 0.0193333333333333 -s 2 -d 3 -p cbr -e 1000 -c 2 -i 1 -a 2 -x {1.0 3.1 -1 ------- null}
r -t 0.022 -s 1 -d 2 -p cbr -e 1000 -c 2 -i 2 -a 2 -x {1.0 3.1 2 ------- null}
+ -t 0.022 -s 2 -d 3 -p cbr -e 1000 -c 2 -i 2 -a 2 -x {1.0 3.1 2 ------- null}
+ -t 0.024 -s 1 -d 2 -p cbr -e 1000 -c 2 -i 3 -a 2 -x {1.0 3.1 3 ------- null}
- -t 0.024 -s 1 -d 2 -p cbr -e 1000 -c 2 -i 3 -a 2 -x {1.0 3.1 3 ------- null}
h -t 0.024 -s 1 -d 2 -p cbr -e 1000 -c 2 -i 3 -a 2 -x {1.0 3.1 -1 ------- null}
+ -t 0.024 -s 1 -d 2 -p cbr -e 1000 -c 2 -i 4 -a 2 -x {1.0 3.1 4 ------- null}
+ -t 0.024 -s 1 -d 2 -p cbr -e 1000 -c 2 -i 5 -a 2 -x {1.0 3.1 5 ------- null}
- -t 0.0246666666666667 -s 2 -d 3 -p cbr -e 1000 -c 2 -i 2 -a 2 -x {1.0 3.1 2 ------- null}
h -t 0.0246666666666667 -s 2 -d 3 -p cbr -e 1000 -c 2 -i 2 -a 2 -x {1.0 3.1 -1 ------- null}
- -t 0.028 -s 1 -d 2 -p cbr -e 1000 -c 2 -i 4 -a 2 -x {1.0 3.1 4 ------- null}
h -t 0.028 -s 1 -d 2 -p cbr -e 1000 -c 2 -i 4 -a 2 -x {1.0 3.1 -1 ------- null}
r -t 0.0293333333333333 -s 2 -d 3 -p cbr -e 1000 -c 2 -i 0 -a 2 -x {1.0 3.1 0 ------- null}
- -t 0.032 -s 1 -d 2 -p cbr -e 1000 -c 2 -i 5 -a 2 -x {1.0 3.1 5 ------- null}
h -t 0.032 -s 1 -d 2 -p cbr -e 1000 -c 2 -i 5 -a 2 -x {1.0 3.1 -1 ------- null}
r -t 0.0346666666666667 -s 2 -d 3 -p cbr -e 1000 -c 2 -i 1 -a 2 -x {1.0 3.1 1 ------- null}
r -t 0.038 -s 1 -d 2 -p cbr -e 1000 -c 2 -i 3 -a 2 -x {1.0 3.1 3 ------- null}
+ -t 0.038 -s 2 -d 3 -p cbr -e 1000 -c 2 -i 3 -a 2 -x {1.0 3.1 3 ------- null}
- -t 0.038 -s 2 -d 3 -p cbr -e 1000 -c 2 -i 3 -a 2 -x {1.0 3.1 3 ------- null}
h -t 0.038 -s 2 -d 3 -p cbr -e 1000 -c 2 -i 3 -a 2 -x {1.0 3.1 -1 ------- null}
r -t 0.04 -s 2 -d 3 -p cbr -e 1000 -c 2 -i 2 -a 2 -x {1.0 3.1 2 ------- null}
r -t 0.042 -s 1 -d 2 -p cbr -e 1000 -c 2 -i 4 -a 2 -x {1.0 3.1 4 ------- null}
+ -t 0.042 -s 2 -d 3 -p cbr -e 1000 -c 2 -i 4 -a 2 -x {1.0 3.1 4 ------- null}
- -t 0.0433333333333333 -s 2 -d 3 -p cbr -e 1000 -c 2 -i 4 -a 2 -x {1.0 3.1 4 ------- null}
h -t 0.0433333333333333 -s 2 -d 3 -p cbr -e 1000 -c 2 -i 4 -a 2 -x {1.0 3.1 -1 ------- null}
r -t 0.046 -s 1 -d 2 -p cbr -e 1000 -c 2 -i 5 -a 2 -x {1.0 3.1 5 ------- null}
+ -t 0.046 -s 2 -d 3 -p cbr -e 1000 -c 2 -i 5 -a 2 -x {1.0 3.1 5 ------- null}
+ -t 0.048 -s 1 -d 2 -p cbr -e 1000 -c 2 -i 6 -a 2 -x {1.0 3.1 6 ------- null}
- -t 0.048 -s 1 -d 2 -p cbr -e 1000 -c 2 -i 6 -a 2 -x {1.0 3.1 6 ------- null}
h -t 0.048 -s 1 -d 2 -p cbr -e 1000 -c 2 -i 6 -a 2 -x {1.0 3.1 -1 ------- null}
+ -t 0.048 -s 1 -d 2 -p cbr -e 1000 -c 2 -i 7 -a 2 -x {1.0 3.1 7 ------- null}
+ -t 0.048 -s 1 -d 2 -p cbr -e 1000 -c 2 -i 8 -a 2 -x {1.0 3.1 8 ------- null}
- -t 0.0486666666666667 -s 2 -d 3 -p cbr -e 1000 -c 2 -i 5 -a 2 -x {1.0 3.1 5 ------- null}
h -t 0.0486666666666667 -s 2 -d 3 -p cbr -e 1000 -c 2 -i 5 -a 2 -x {1.0 3.1 -1 ------- null}
- -t 0.052 -s 1 -d 2 -p cbr -e 1000 -c 2 -i 7 -a 2 -x {1.0 3.1 7 ------- null}
h -t 0.052 -s 1 -d 2 -p cbr -e 1000 -c 2 -i 7 -a 2 -x {1.0 3.1 -1 ------- null}
r -t 0.0533333333333333 -s 2 -d 3 -p cbr -e 1000 -c 2 -i 3 -a 2 -x {1.0 3.1 3 ------- null}
- -t 0.056 -s 1 -d 2 -p cbr -e 1000 -c 2 -i 8 -a 2 -x {1.0 3.1 8 ------- null}
h -t 0.056 -s 1 -d 2 -p cbr -e 1000 -c 2 -i 8 -a 2 -x {1.0 3.1 -1 ------- null}
r -t 0.0586666666666667 -s 2 -d 3 -p cbr -e 1000 -c 2 -i 4 -a 2 -x {1.0 3.1 4 ------- null}
r -t 0.062 -s 1 -d 2 -p cbr -e 1000 -c 2 -i 6 -a 2 -x {1.0 3.1 6 ------- null}
+ -t 0.062 -s 2 -d 3 -p cbr -e 1000 -c 2 -i 6 -a 2 -x {1.0 3.1 6 ------- null}
- -t 0.062 -s 2 -d 3 -p cbr -e 1000 -c 2 -i 6 -a 2 -x {1.0 3.1 6 ------- null}
h -t 0.062 -s 2 -d 3 -p cbr -e 1000 -c 2 -i 6 -a 2 -x {1.0 3.1 -1 ------- null}
r -t 0.064 -s 2 -d 3 -p cbr -e 1000 -c 2 -i 5 -a 2 -x {1.0 3.1 5 ------- null}
r -t 0.066 -s 1 -d 2 -p cbr -e 1000 -c 2 -i 7 -a 2 -x {1.0 3.1 7 ------- null}
+ -t 0.066 -s 2 -d 3 -p cbr -e 1000 -c 2 -i 7 -a 2 -x {1.0 3.1 7 ------- null}
- -t 0.0673333333333333 -s 2 -d 3 -p cbr -e 1000 -c 2 -i 7 -a 2 -x {1.0 3.1 7 ------- null}
h -t 0.0673333333333333 -s 2 -d 3 -p cbr -e 1000 -c 2 -i 7 -a 2 -x {1.0 3.1 -1 ------- null}
r -t 0.07 -s 1 -d 2 -p cbr -e 1000 -c 2 -i 8 -a 2 -x {1.0 3.1 8 ------- null}
+ -t 0.07 -s 2 -d 3 -p cbr -e 1000 -c 2 -i 8 -a 2 -x {1.0 3.1 8 ------- null}
+ -t 0.072 -s 1 -d 2 -p cbr -e 1000 -c 2 -i 9 -a 2 -x {1.0 3.1 9 ------- null}
- -t 0.072 -s 1 -d 2 -p cbr -e 1000 -c 2 -i 9 -a 2 -x {1.0 3.1 9 ------- null}
h -t 0.072 -s 1 -d 2 -p cbr -e 1000 -c 2 -i 9 -a 2 -x {1.0 3.1 -1 ------- null}
+ -t 0.072 -s 1 -d 2 -p cbr -e 1000 -c 2 -i 10 -a 2 -x {1.0 3.1 10 ------- null}
+ -t 0.072 -s 1 -d 2 -p cbr -e 1000 -c 2 -i 11 -a 2 -x {1.0 3.1 11 ------- null}
- -t 0.0726666666666667 -s 2 -d 3 -p cbr -e 1000 -c 2 -i 8 -a 2 -x {1.0 3.1 8 ------- null}
h -t 0.0726666666666667 -s 2 -d 3 -p cbr -e 1000 -c 2 -i 8 -a 2 -x {1.0 3.1 -1 ------- null}
- -t 0.076 -s 1 -d 2 -p cbr -e 1000 -c 2 -i 10 -a 2 -x {1.0 3.1 10 ------- null}
h -t 0.076 -s 1 -d 2 -p cbr -e 1000 -c 2 -i 10 -a 2 -x {1.0 3.1 -1 ------- null}
r -t 0.0773333333333333 -s 2 -d 3 -p cbr -e 1000 -c 2 -i 6 -a 2 -x {1.0 3.1 6 ------- null}
- -t 0.08 -s 1 -d 2 -p cbr -e 1000 -c 2 -i 11 -a 2 -x {1.0 3.1 11 ------- null}
h -t 0.08 -s 1 -d 2 -p cbr -e 1000 -c 2 -i 11 -a 2 -x {1.0 3.1 -1 ------- null}
r -t 0.0826666666666667 -s 2 -d 3 -p cbr -e 1000 -c 2 -i 7 -a 2 -x {1.0 3.1 7 ------- null}
r -t 0.086 -s 1 -d 2 -p cbr -e 1000 -c 2 -i 9 -a 2 -x {1.0 3.1 9 ------- null}
+ -t 0.086 -s 2 -d 3 -p cbr -e 1000 -c 2 -i 9 -a 2 -x {1.0 3.1 9 ------- null}
- -t 0.086 -s 2 -d 3 -p cbr -e 1000 -c 2 -i 9 -a 2 -x {1.0 3.1 9 ------- null}
h -t 0.086 -s 2 -d 3 -p cbr -e 1000 -c 2 -i 9 -a 2 -x {1.0 3.1 -1 ------- null}
r -t 0.088 -s 2 -d 3 -p cbr -e 1000 -c 2 -i 8 -a 2 -x {1.0 3.1 8 ------- null}
r -t 0.09 -s 1 -d 2 -p cbr -e 1000 -c 2 -i 10 -a 2 -x {1.0 3.1 10 ------- null}
+ -t 0.09 -s 2 -d 3 -p cbr -e 1000 -c 2 -i 10 -a 2 -x {1.0 3.1 10 ------- null}
- -t 0.0913333333333333 -s 2 -d 3 -p cbr -e 1000 -c 2 -i 10 -a 2 -x {1.0 3.1 10 ------- null}
h -t 0.0913333333333333 -s 2 -d 3 -p cbr -e 1000 -c 2 -i 10 -a 2 -x {1.0 3.1 -1 ------- null}
r -t 0.094 -s 1 -d 2 -p cbr -e 1000 -c 2 -i 11 -a 2 -x {1.0 3.1 11 ------- null}
+ -t 0.094 -s 2 -d 3 -p cbr -e 1000 -c 2 -i 11 -a 2 -x {1.0 3.1 11 ------- null}
+ -t 0.096 -s 1 -d 2 -p cbr -e 1000 -c 2 -i 12 -a 2 -x {1.0 3.1 12 ------- null}
- -t 0.096 -s 1 -d 2 -p cbr -e 1000 -c 2 -i 12 -a 2 -x {1.0 3.1 12 ------- null}
h -t 0.096 -s 1 -d 2 -p cbr -e 1000 -c 2 -i 12 -a 2 -x {1.0 3.1 -1 ------- null}
+ -t 0.096 -s 1 -d 2 -p cbr -e 1000 -c 2 -i 13 -a 2 -x {1.0 3.1 13 ------- null}
+ -t 0.096 -s 1 -d 2 -p cbr -e 1000 -c 2 -i 14 -a 2 -x {1.0 3.1 14 ------- null}
- -t 0.0966666666666667 -s 2 -d 3 -p cbr -e 1000 -c 2 -i 11 -a 2 -x {1.0 3.1 11 ------- null}
h -t 0.0966666666666667 -s 2 -d 3 -p cbr -e 1000 -c 2 -i 11 -a 2 -x {1.0 3.1 -1 ------- null}
+ -t 0.1 -s 0 -d 2 -p tcp -e 40 -c 1 -i 15 -a 1 -x {0.0 3.0 0 ------- null}
- -t 0.1 -s 0 -d 2 -p tcp -e 40 -c 1 -i 15 -a 1 -x {0.0 3.0 0 ------- null}
h -t 0.1 -s 0 -d 2 -p tcp -e 40 -c 1 -i 15 -a 1 -x {0.0 3.0 -1 ------- null}
- -t 0.1 -s 1 -d 2 -p cbr -e 1000 -c 2 -i 13 -a 2 -x {1.0 3.1 13 ------- null}
h -t 0.1 -s 1 -d 2 -p cbr -e 1000 -c 2 -i 13 -a 2 -x {1.0 3.1 -1 ------- null}
r -t 0.101333333333333 -s 2 -d 3 -p cbr -e 1000 -c 2 -i 9 -a 2 -x {1.0 3.1 9 ------- null}
- -t 0.104 -s 1 -d 2 -p cbr -e 1000 -c 2 -i 14 -a 2 -x {1.0 3.1 14 ------- null}
h -t 0.104 -s 1 -d 2 -p cbr -e 1000 -c 2 -i 14 -a 2 -x {1.0 3.1 -1 ------- null}
r -t 0.106666666666667 -s 2 -d 3 -p cbr -e 1000 -c 2 -i 10 -a 2 -x {1.0 3.1 10 ------- null}
r -t 0.11 -s 1 -d 2 -p cbr -e 1000 -c 2 -i 12 -a 2 -x {1.0 3.1 12 ------- null}
+ -t 0.11 -s 2 -d 3 -p cbr -e 1000 -c 2 -i 12 -a 2 -x {1.0 3.1 12 ------- null}
- -t 0.11 -s 2 -d 3 -p cbr -e 1000 -c 2 -i 12 -a 2 -x {1.0 3.1 12 ------- null}
h -t 0.11 -s 2 -d 3 -p cbr -e 1000 -c 2 -i 12 -a 2 -x {1.0 3.1 -1 ------- null}
r -t 0.11016 -s 0 -d 2 -p tcp -e 40 -c 1 -i 15 -a 1 -x {0.0 3.0 0 ------- null}
+ -t 0.11016 -s 2 -d 3 -p tcp -e 40 -c 1 -i 15 -a 1 -x {0.0 3.0 0 ------- null}
r -t 0.112 -s 2 -d 3 -p cbr -e 1000 -c 2 -i 11 -a 2 -x {1.0 3.1 11 ------- null}
r -t 0.114 -s 1 -d 2 -p cbr -e 1000 -c 2 -i 13 -a 2 -x {1.0 3.1 13 ------- null}
+ -t 0.114 -s 2 -d 3 -p cbr -e 1000 -c 2 -i 13 -a 2 -x {1.0 3.1 13 ------- null}
- -t 0.115333333333333 -s 2 -d 3 -p tcp -e 40 -c 1 -i 15 -a 1 -x {0.0 3.0 0 ------- null}
h -t 0.115333333333333 -s 2 -d 3 -p tcp -e 40 -c 1 -i 15 -a 1 -x {0.0 3.0 -1 ------- null}
- -t 0.115546666666667 -s 2 -d 3 -p cbr -e 1000 -c 2 -i 13 -a 2 -x {1.0 3.1 13 ------- null}
h -t 0.115546666666667 -s 2 -d 3 -p cbr -e 1000 -c 2 -i 13 -a 2 -x {1.0 3.1 -1 ------- null}
r -t 0.118 -s 1 -d 2 -p cbr -e 1000 -c 2 -i 14 -a 2 -x {1.0 3.1 14 ------- null}
+ -t 0.118 -s 2 -d 3 -p cbr -e 1000 -c 2 -i 14 -a 2 -x {1.0 3.1 14 ------- null}
+ -t 0.12 -s 1 -d 2 -p cbr -e 1000 -c 2 -i 16 -a 2 -x {1.0 3.1 15 ------- null}
- -t 0.12 -s 1 -d 2 -p cbr -e 1000 -c 2 -i 16 -a 2 -x {1.0 3.1 15 ------- null}
h -t 0.12 -s 1 -d 2 -p cbr -e 1000 -c 2 -i 16 -a 2 -x {1.0 3.1 -1 ------- null}
+ -t 0.12 -s 1 -d 2 -p cbr -e 1000 -c 2 -i 17 -a 2 -x {1.0 3.1 16 ------- null}
+ -t 0.12 -s 1 -d 2 -p cbr -e 1000 -c 2 -i 18 -a 2 -x {1.0 3.1 17 ------- null}
- -t 0.12088 -s 2 -d 3 -p cbr -e 1000 -c 2 -i 14 -a 2 -x {1.0 3.1 14 ------- null}
h -t 0.12088 -s 2 -d 3 -p cbr -e 1000 -c 2 -i 14 -a 2 -x {1.0 3.1 -1 ------- null}
- -t 0.124 -s 1 -d 2 -p cbr -e 1000 -c 2 -i 17 -a 2 -x {1.0 3.1 16 ------- null}
h -t 0.124 -s 1 -d 2 -p cbr -e 1000 -c 2 -i 17 -a 2 -x {1.0 3.1 -1 ------- null}
r -t 0.125333333333333 -s 2 -d 3 -p cbr -e 1000 -c 2 -i 12 -a 2 -x {1.0 3.1 12 ------- null}
r -t 0.125546666666667 -s 2 -d 3 -p tcp -e 40 -c 1 -i 15 -a 1 -x {0.0 3.0 0 ------- null}
+ -t 0.125546666666667 -s 3 -d 2 -p ack -e 40 -c 1 -i 19 -a 1 -x {3.0 0.0 0 ------- null}
- -t 0.125546666666667 -s 3 -d 2 -p ack -e 40 -c 1 -i 19 -a 1 -x {3.0 0.0 0 ------- null}
h -t 0.125546666666667 -s 3 -d 2 -p ack -e 40 -c 1 -i 19 -a 1 -x {3.0 0.0 -1 ------- null}
- -t 0.128 -s 1 -d 2 -p cbr -e 1000 -c 2 -i 18 -a 2 -x {1.0 3.1 17 ------- null}
h -t 0.128 -s 1 -d 2 -p cbr -e 1000 -c 2 -i 18 -a 2 -x {1.0 3.1 -1 ------- null}
r -t 0.13088 -s 2 -d 3 -p cbr -e 1000 -c 2 -i 13 -a 2 -x {1.0 3.1 13 ------- null}
r -t 0.134 -s 1 -d 2 -p cbr -e 1000 -c 2 -i 16 -a 2 -x {1.0 3.1 15 ------- null}
+ -t 0.134 -s 2 -d 3 -p cbr -e 1000 -c 2 -i 16 -a 2 -x {1.0 3.1 15 ------- null}
- -t 0.134 -s 2 -d 3 -p cbr -e 1000 -c 2 -i 16 -a 2 -x {1.0 3.1 15 ------- null}
h -t 0.134 -s 2 -d 3 -p cbr -e 1000 -c 2 -i 16 -a 2 -x {1.0 3.1 -1 ------- null}
r -t 0.13576 -s 3 -d 2 -p ack -e 40 -c 1 -i 19 -a 1 -x {3.0 0.0 0 ------- null}
+ -t 0.13576 -s 2 -d 0 -p ack -e 40 -c 1 -i 19 -a 1 -x {3.0 0.0 0 ------- null}
- -t 0.13576 -s 2 -d 0 -p ack -e 40 -c 1 -i 19 -a 1 -x {3.0 0.0 0 ------- null}
h -t 0.13576 -s 2 -d 0 -p ack -e 40 -c 1 -i 19 -a 1 -x {3.0 0.0 -1 ------- null}
r -t 0.136213333333333 -s 2 -d 3 -p cbr -e 1000 -c 2 -i 14 -a 2 -x {1.0 3.1 14 ------- null}
r -t 0.138 -s 1 -d 2 -p cbr -e 1000 -c 2 -i 17 -a 2 -x {1.0 3.1 16 ------- null}
+ -t 0.138 -s 2 -d 3 -p cbr -e 1000 -c 2 -i 17 -a 2 -x {1.0 3.1 16 ------- null}
- -t 0.139333333333333 -s 2 -d 3 -p cbr -e 1000 -c 2 -i 17 -a 2 -x {1.0 3.1 16 ------- null}
h -t 0.139333333333333 -s 2 -d 3 -p cbr -e 1000 -c 2 -i 17 -a 2 -x {1.0 3.1 -1 ------- null}
r -t 0.142 -s 1 -d 2 -p cbr -e 1000 -c 2 -i 18 -a 2 -x {1.0 3.1 17 ------- null}
+ -t 0.142 -s 2 -d 3 -p cbr -e 1000 -c 2 -i 18 -a 2 -x {1.0 3.1 17 ------- null}
+ -t 0.144 -s 1 -d 2 -p cbr -e 1000 -c 2 -i 20 -a 2 -x {1.0 3.1 18 ------- null}
- -t 0.144 -s 1 -d 2 -p cbr -e 1000 -c 2 -i 20 -a 2 -x {1.0 3.1 18 ------- null}
h -t 0.144 -s 1 -d 2 -p cbr -e 1000 -c 2 -i 20 -a 2 -x {1.0 3.1 -1 ------- null}
+ -t 0.144 -s 1 -d 2 -p cbr -e 1000 -c 2 -i 21 -a 2 -x {1.0 3.1 19 ------- null}
+ -t 0.144 -s 1 -d 2 -p cbr -e 1000 -c 2 -i 22 -a 2 -x {1.0 3.1 20 ------- null}
- -t 0.144666666666667 -s 2 -d 3 -p cbr -e 1000 -c 2 -i 18 -a 2 -x {1.0 3.1 17 ------- null}
h -t 0.144666666666667 -s 2 -d 3 -p cbr -e 1000 -c 2 -i 18 -a 2 -x {1.0 3.1 -1 ------- null}
r -t 0.14592 -s 2 -d 0 -p ack -e 40 -c 1 -i 19 -a 1 -x {3.0 0.0 0 ------- null}
+ -t 0.14592 -s 0 -d 2 -p tcp -e 1040 -c 1 -i 23 -a 1 -x {0.0 3.0 1 ------- null}
- -t 0.14592 -s 0 -d 2 -p tcp -e 1040 -c 1 -i 23 -a 1 -x {0.0 3.0 1 ------- null}
h -t 0.14592 -s 0 -d 2 -p tcp -e 1040 -c 1 -i 23 -a 1 -x {0.0 3.0 -1 ------- null}
+ -t 0.14592 -s 0 -d 2 -p tcp -e 1040 -c 1 -i 24 -a 1 -x {0.0 3.0 2 ------- null}
- -t 0.148 -s 1 -d 2 -p cbr -e 1000 -c 2 -i 21 -a 2 -x {1.0 3.1 19 ------- null}
h -t 0.148 -s 1 -d 2 -p cbr -e 1000 -c 2 -i 21 -a 2 -x {1.0 3.1 -1 ------- null}
r -t 0.149333333333333 -s 2 -d 3 -p cbr -e 1000 -c 2 -i 16 -a 2 -x {1.0 3.1 15 ------- null}
- -t 0.15008 -s 0 -d 2 -p tcp -e 1040 -c 1 -i 24 -a 1 -x {0.0 3.0 2 ------- null}
h -t 0.15008 -s 0 -d 2 -p tcp -e 1040 -c 1 -i 24 -a 1 -x {0.0 3.0 -1 ------- null}
- -t 0.152 -s 1 -d 2 -p cbr -e 1000 -c 2 -i 22 -a 2 -x {1.0 3.1 20 ------- null}
h -t 0.152 -s 1 -d 2 -p cbr -e 1000 -c 2 -i 22 -a 2 -x {1.0 3.1 -1 ------- null}
r -t 0.154666666666667 -s 2 -d 3 -p cbr -e 1000 -c 2 -i 17 -a 2 -x {1.0 3.1 16 ------- null}
r -t 0.158 -s 1 -d 2 -p cbr -e 1000 -c 2 -i 20 -a 2 -x {1.0 3.1 18 ------- null}
+ -t 0.158 -s 2 -d 3 -p cbr -e 1000 -c 2 -i 20 -a 2 -x {1.0 3.1 18 ------- null}
- -t 0.158 -s 2 -d 3 -p cbr -e 1000 -c 2 -i 20 -a 2 -x {1.0 3.1 18 ------- null}
h -t 0.158 -s 2 -d 3 -p cbr -e 1000 -c 2 -i 20 -a 2 -x {1.0 3.1 -1 ------- null}
r -t 0.16 -s 2 -d 3 -p cbr -e 1000 -c 2 -i 18 -a 2 -x {1.0 3.1 17 ------- null}
r -t 0.16008 -s 0 -d 2 -p tcp -e 1040 -c 1 -i 23 -a 1 -x {0.0 3.0 1 ------- null}
+ -t 0.16008 -s 2 -d 3 -p tcp -e 1040 -c 1 -i 23 -a 1 -x {0.0 3.0 1 ------- null}
r -t 0.162 -s 1 -d 2 -p cbr -e 1000 -c 2 -i 21 -a 2 -x {1.0 3.1 19 ------- null}
+ -t 0.162 -s 2 -d 3 -p cbr -e 1000 -c 2 -i 21 -a 2 -x {1.0 3.1 19 ------- null}
- -t 0.163333333333333 -s 2 -d 3 -p tcp -e 1040 -c 1 -i 23 -a 1 -x {0.0 3.0 1 ------- null}
h -t 0.163333333333333 -s 2 -d 3 -p tcp -e 1040 -c 1 -i 23 -a 1 -x {0.0 3.0 -1 ------- null}
r -t 0.16424 -s 0 -d 2 -p tcp -e 1040 -c 1 -i 24 -a 1 -x {0.0 3.0 2 ------- null}
+ -t 0.16424 -s 2 -d 3 -p tcp -e 1040 -c 1 -i 24 -a 1 -x {0.0 3.0 2 ------- null}
r -t 0.166 -s 1 -d 2 -p cbr -e 1000 -c 2 -i 22 -a 2 -x {1.0 3.1 20 ------- null}
+ -t 0.166 -s 2 -d 3 -p cbr -e 1000 -c 2 -i 22 -a 2 -x {1.0 3.1 20 ------- null}
+ -t 0.168 -s 1 -d 2 -p cbr -e 1000 -c 2 -i 25 -a 2 -x {1.0 3.1 21 ------- null}
- -t 0.168 -s 1 -d 2 -p cbr -e 1000 -c 2 -i 25 -a 2 -x {1.0 3.1 21 ------- null}
h -t 0.168 -s 1 -d 2 -p cbr -e 1000 -c 2 -i 25 -a 2 -x {1.0 3.1 -1 ------- null}
+ -t 0.168 -s 1 -d 2 -p cbr -e 1000 -c 2 -i 26 -a 2 -x {1.0 3.1 22 ------- null}
+ -t 0.168 -s 1 -d 2 -p cbr -e 1000 -c 2 -i 27 -a 2 -x {1.0 3.1 23 ------- null}
- -t 0.16888 -s 2 -d 3 -p cbr -e 1000 -c 2 -i 21 -a 2 -x {1.0 3.1 19 ------- null}
h -t 0.16888 -s 2 -d 3 -p cbr -e 1000 -c 2 -i 21 -a 2 -x {1.0 3.1 -1 ------- null}
- -t 0.172 -s 1 -d 2 -p cbr -e 1000 -c 2 -i 26 -a 2 -x {1.0 3.1 22 ------- null}
h -t 0.172 -s 1 -d 2 -p cbr -e 1000 -c 2 -i 26 -a 2 -x {1.0 3.1 -1 ------- null}
r -t 0.173333333333333 -s 2 -d 3 -p cbr -e 1000 -c 2 -i 20 -a 2 -x {1.0 3.1 18 ------- null}
- -t 0.174213333333333 -s 2 -d 3 -p tcp -e 1040 -c 1 -i 24 -a 1 -x {0.0 3.0 2 ------- null}
h -t 0.174213333333333 -s 2 -d 3 -p tcp -e 1040 -c 1 -i 24 -a 1 -x {0.0 3.0 -1 ------- null}
- -t 0.176 -s 1 -d 2 -p cbr -e 1000 -c 2 -i 27 -a 2 -x {1.0 3.1 23 ------- null}
h -t 0.176 -s 1 -d 2 -p cbr -e 1000 -c 2 -i 27 -a 2 -x {1.0 3.1 -1 ------- null}
r -t 0.17888 -s 2 -d 3 -p tcp -e 1040 -c 1 -i 23 -a 1 -x {0.0 3.0 1 ------- null}
+ -t 0.17888 -s 3 -d 2 -p ack -e 40 -c 1 -i 28 -a 1 -x {3.0 0.0 1 ------- null}
- -t 0.17888 -s 3 -d 2 -p ack -e 40 -c 1 -i 28 -a 1 -x {3.0 0.0 1 ------- null}
h -t 0.17888 -s 3 -d 2 -p ack -e 40 -c 1 -i 28 -a 1 -x {3.0 0.0 -1 ------- null}
- -t 0.17976 -s 2 -d 3 -p cbr -e 1000 -c 2 -i 22 -a 2 -x {1.0 3.1 20 ------- null}
h -t 0.17976 -s 2 -d 3 -p cbr -e 1000 -c 2 -i 22 -a 2 -x {1.0 3.1 -1 ------- null}
r -t 0.182 -s 1 -d 2 -p cbr -e 1000 -c 2 -i 25 -a 2 -x {1.0 3.1 21 ------- null}
+ -t 0.182 -s 2 -d 3 -p cbr -e 1000 -c 2 -i 25 -a 2 -x {1.0 3.1 21 ------- null}
r -t 0.184213333333333 -s 2 -d 3 -p cbr -e 1000 -c 2 -i 21 -a 2 -x {1.0 3.1 19 ------- null}
- -t 0.185093333333333 -s 2 -d 3 -p cbr -e 1000 -c 2 -i 25 -a 2 -x {1.0 3.1 21 ------- null}
h -t 0.185093333333333 -s 2 -d 3 -p cbr -e 1000 -c 2 -i 25 -a 2 -x {1.0 3.1 -1 ------- null}
r -t 0.186 -s 1 -d 2 -p cbr -e 1000 -c 2 -i 26 -a 2 -x {1.0 3.1 22 ------- null}
+ -t 0.186 -s 2 -d 3 -p cbr -e 1000 -c 2 -i 26 -a 2 -x {1.0 3.1 22 ------- null}
r -t 0.189093333333333 -s 3 -d 2 -p ack -e 40 -c 1 -i 28 -a 1 -x {3.0 0.0 1 ------- null}
+ -t 0.189093333333333 -s 2 -d 0 -p ack -e 40 -c 1 -i 28 -a 1 -x {3.0 0.0 1 ------- null}
- -t 0.189093333333333 -s 2 -d 0 -p ack -e 40 -c 1 -i 28 -a 1 -x {3.0 0.0 1 ------- null}
h -t 0.189093333333333 -s 2 -d 0 -p ack -e 40 -c 1 -i 28 -a 1 -x {3.0 0.0 -1 ------- null}
r -t 0.18976 -s 2 -d 3 -p tcp -e 1040 -c 1 -i 24 -a 1 -x {0.0 3.0 2 ------- null}
+ -t 0.18976 -s 3 -d 2 -p ack -e 40 -c 1 -i 29 -a 1 -x {3.0 0.0 2 ------- null}
- -t 0.18976 -s 3 -d 2 -p ack -e 40 -c 1 -i 29 -a 1 -x {3.0 0.0 2 ------- null}
h -t 0.18976 -s 3 -d 2 -p ack -e 40 -c 1 -i 29 -a 1 -x {3.0 0.0 -1 ------- null}
r -t 0.19 -s 1 -d 2 -p cbr -e 1000 -c 2 -i 27 -a 2 -x {1.0 3.1 23 ------- null}
+ -t 0.19 -s 2 -d 3 -p cbr -e 1000 -c 2 -i 27 -a 2 -x {1.0 3.1 23 ------- null}
- -t 0.190426666666667 -s 2 -d 3 -p cbr -e 1000 -c 2 -i 26 -a 2 -x {1.0 3.1 22 ------- null}
h -t 0.190426666666667 -s 2 -d 3 -p cbr -e 1000 -c 2 -i 26 -a 2 -x {1.0 3.1 -1 ------- null}
+ -t 0.192 -s 1 -d 2 -p cbr -e 1000 -c 2 -i 30 -a 2 -x {1.0 3.1 24 ------- null}
- -t 0.192 -s 1 -d 2 -p cbr -e 1000 -c 2 -i 30 -a 2 -x {1.0 3.1 24 ------- null}
h -t 0.192 -s 1 -d 2 -p cbr -e 1000 -c 2 -i 30 -a 2 -x {1.0 3.1 -1 ------- null}
+ -t 0.192 -s 1 -d 2 -p cbr -e 1000 -c 2 -i 31 -a 2 -x {1.0 3.1 25 ------- null}
+ -t 0.192 -s 1 -d 2 -p cbr -e 1000 -c 2 -i 32 -a 2 -x {1.0 3.1 26 ------- null}
r -t 0.195093333333333 -s 2 -d 3 -p cbr -e 1000 -c 2 -i 22 -a 2 -x {1.0 3.1 20 ------- null}
- -t 0.19576 -s 2 -d 3 -p cbr -e 1000 -c 2 -i 27 -a 2 -x {1.0 3.1 23 ------- null}
h -t 0.19576 -s 2 -d 3 -p cbr -e 1000 -c 2 -i 27 -a 2 -x {1.0 3.1 -1 ------- null}
- -t 0.196 -s 1 -d 2 -p cbr -e 1000 -c 2 -i 31 -a 2 -x {1.0 3.1 25 ------- null}
h -t 0.196 -s 1 -d 2 -p cbr -e 1000 -c 2 -i 31 -a 2 -x {1.0 3.1 -1 ------- null}
r -t 0.199253333333333 -s 2 -d 0 -p ack -e 40 -c 1 -i 28 -a 1 -x {3.0 0.0 1 ------- null}
+ -t 0.199253333333333 -s 0 -d 2 -p tcp -e 1040 -c 1 -i 33 -a 1 -x {0.0 3.0 3 ------- null}
- -t 0.199253333333333 -s 0 -d 2 -p tcp -e 1040 -c 1 -i 33 -a 1 -x {0.0 3.0 3 ------- null}
h -t 0.199253333333333 -s 0 -d 2 -p tcp -e 1040 -c 1 -i 33 -a 1 -x {0.0 3.0 -1 ------- null}
+ -t 0.199253333333333 -s 0 -d 2 -p tcp -e 1040 -c 1 -i 34 -a 1 -x {0.0 3.0 4 ------- null}
r -t 0.199973333333333 -s 3 -d 2 -p ack -e 40 -c 1 -i 29 -a 1 -x {3.0 0.0 2 ------- null}
+ -t 0.199973333333333 -s 2 -d 0 -p ack -e 40 -c 1 -i 29 -a 1 -x {3.0 0.0 2 ------- null}
- -t 0.199973333333333 -s 2 -d 0 -p ack -e 40 -c 1 -i 29 -a 1 -x {3.0 0.0 2 ------- null}
h -t 0.199973333333333 -s 2 -d 0 -p ack -e 40 -c 1 -i 29 -a 1 -x {3.0 0.0 -1 ------- null}
- -t 0.2 -s 1 -d 2 -p cbr -e 1000 -c 2 -i 32 -a 2 -x {1.0 3.1 26 ------- null}
h -t 0.2 -s 1 -d 2 -p cbr -e 1000 -c 2 -i 32 -a 2 -x {1.0 3.1 -1 ------- null}
r -t 0.200426666666667 -s 2 -d 3 -p cbr -e 1000 -c 2 -i 25 -a 2 -x {1.0 3.1 21 ------- null}
- -t 0.203413333333333 -s 0 -d 2 -p tcp -e 1040 -c 1 -i 34 -a 1 -x {0.0 3.0 4 ------- null}
h -t 0.203413333333333 -s 0 -d 2 -p tcp -e 1040 -c 1 -i 34 -a 1 -x {0.0 3.0 -1 ------- null}
r -t 0.20576 -s 2 -d 3 -p cbr -e 1000 -c 2 -i 26 -a 2 -x {1.0 3.1 22 ------- null}
r -t 0.206 -s 1 -d 2 -p cbr -e 1000 -c 2 -i 30 -a 2 -x {1.0 3.1 24 ------- null}
+ -t 0.206 -s 2 -d 3 -p cbr -e 1000 -c 2 -i 30 -a 2 -x {1.0 3.1 24 ------- null}
- -t 0.206 -s 2 -d 3 -p cbr -e 1000 -c 2 -i 30 -a 2 -x {1.0 3.1 24 ------- null}
h -t 0.206 -s 2 -d 3 -p cbr -e 1000 -c 2 -i 30 -a 2 -x {1.0 3.1 -1 ------- null}
r -t 0.21 -s 1 -d 2 -p cbr -e 1000 -c 2 -i 31 -a 2 -x {1.0 3.1 25 ------- null}
+ -t 0.21 -s 2 -d 3 -p cbr -e 1000 -c 2 -i 31 -a 2 -x {1.0 3.1 25 ------- null}
r -t 0.210133333333333 -s 2 -d 0 -p ack -e 40 -c 1 -i 29 -a 1 -x {3.0 0.0 2 ------- null}
+ -t 0.210133333333333 -s 0 -d 2 -p tcp -e 1040 -c 1 -i 35 -a 1 -x {0.0 3.0 5 ------- null}
- -t 0.210133333333333 -s 0 -d 2 -p tcp -e 1040 -c 1 -i 35 -a 1 -x {0.0 3.0 5 ------- null}
h -t 0.210133333333333 -s 0 -d 2 -p tcp -e 1040 -c 1 -i 35 -a 1 -x {0.0 3.0 -1 ------- null}
+ -t 0.210133333333333 -s 0 -d 2 -p tcp -e 1040 -c 1 -i 36 -a 1 -x {0.0 3.0 6 ------- null}
r -t 0.211093333333333 -s 2 -d 3 -p cbr -e 1000 -c 2 -i 27 -a 2 -x {1.0 3.1 23 ------- null}
- -t 0.211333333333333 -s 2 -d 3 -p cbr -e 1000 -c 2 -i 31 -a 2 -x {1.0 3.1 25 ------- null}
h -t 0.211333333333333 -s 2 -d 3 -p cbr -e 1000 -c 2 -i 31 -a 2 -x {1.0 3.1 -1 ------- null}
r -t 0.213413333333333 -s 0 -d 2 -p tcp -e 1040 -c 1 -i 33 -a 1 -x {0.0 3.0 3 ------- null}
+ -t 0.213413333333333 -s 2 -d 3 -p tcp -e 1040 -c 1 -i 33 -a 1 -x {0.0 3.0 3 ------- null}
r -t 0.214 -s 1 -d 2 -p cbr -e 1000 -c 2 -i 32 -a 2 -x {1.0 3.1 26 ------- null}
+ -t 0.214 -s 2 -d 3 -p cbr -e 1000 -c 2 -i 32 -a 2 -x {1.0 3.1 26 ------- null}
- -t 0.214293333333333 -s 0 -d 2 -p tcp -e 1040 -c 1 -i 36 -a 1 -x {0.0 3.0 6 ------- null}
h -t 0.214293333333333 -s 0 -d 2 -p tcp -e 1040 -c 1 -i 36 -a 1 -x {0.0 3.0 -1 ------- null}
+ -t 0.216 -s 1 -d 2 -p cbr -e 1000 -c 2 -i 37 -a 2 -x {1.0 3.1 27 ------- null}
- -t 0.216 -s 1 -d 2 -p cbr -e 1000 -c 2 -i 37 -a 2 -x {1.0 3.1 27 ------- null}
h -t 0.216 -s 1 -d 2 -p cbr -e 1000 -c 2 -i 37 -a 2 -x {1.0 3.1 -1 ------- null}
+ -t 0.216 -s 1 -d 2 -p cbr -e 1000 -c 2 -i 38 -a 2 -x {1.0 3.1 28 ------- null}
+ -t 0.216 -s 1 -d 2 -p cbr -e 1000 -c 2 -i 39 -a 2 -x {1.0 3.1 29 ------- null}
- -t 0.216666666666667 -s 2 -d 3 -p tcp -e 1040 -c 1 -i 33 -a 1 -x {0.0 3.0 3 ------- null}
h -t 0.216666666666667 -s 2 -d 3 -p tcp -e 1040 -c 1 -i 33 -a 1 -x {0.0 3.0 -1 ------- null}
r -t 0.217573333333333 -s 0 -d 2 -p tcp -e 1040 -c 1 -i 34 -a 1 -x {0.0 3.0 4 ------- null}
+ -t 0.217573333333333 -s 2 -d 3 -p tcp -e 1040 -c 1 -i 34 -a 1 -x {0.0 3.0 4 ------- null}
- -t 0.22 -s 1 -d 2 -p cbr -e 1000 -c 2 -i 38 -a 2 -x {1.0 3.1 28 ------- null}
h -t 0.22 -s 1 -d 2 -p cbr -e 1000 -c 2 -i 38 -a 2 -x {1.0 3.1 -1 ------- null}
r -t 0.221333333333333 -s 2 -d 3 -p cbr -e 1000 -c 2 -i 30 -a 2 -x {1.0 3.1 24 ------- null}
- -t 0.222213333333333 -s 2 -d 3 -p cbr -e 1000 -c 2 -i 32 -a 2 -x {1.0 3.1 26 ------- null}
h -t 0.222213333333333 -s 2 -d 3 -p cbr -e 1000 -c 2 -i 32 -a 2 -x {1.0 3.1 -1 ------- null}
- -t 0.224 -s 1 -d 2 -p cbr -e 1000 -c 2 -i 39 -a 2 -x {1.0 3.1 29 ------- null}
h -t 0.224 -s 1 -d 2 -p cbr -e 1000 -c 2 -i 39 -a 2 -x {1.0 3.1 -1 ------- null}
r -t 0.224293333333333 -s 0 -d 2 -p tcp -e 1040 -c 1 -i 35 -a 1 -x {0.0 3.0 5 ------- null}
+ -t 0.224293333333333 -s 2 -d 3 -p tcp -e 1040 -c 1 -i 35 -a 1 -x {0.0 3.0 5 ------- null}
r -t 0.226666666666667 -s 2 -d 3 -p cbr -e 1000 -c 2 -i 31 -a 2 -x {1.0 3.1 25 ------- null}
- -t 0.227546666666667 -s 2 -d 3 -p tcp -e 1040 -c 1 -i 34 -a 1 -x {0.0 3.0 4 ------- null}
h -t 0.227546666666667 -s 2 -d 3 -p tcp -e 1040 -c 1 -i 34 -a 1 -x {0.0 3.0 -1 ------- null}
r -t 0.228453333333333 -s 0 -d 2 -p tcp -e 1040 -c 1 -i 36 -a 1 -x {0.0 3.0 6 ------- null}
+ -t 0.228453333333333 -s 2 -d 3 -p tcp -e 1040 -c 1 -i 36 -a 1 -x {0.0 3.0 6 ------- null}
r -t 0.23 -s 1 -d 2 -p cbr -e 1000 -c 2 -i 37 -a 2 -x {1.0 3.1 27 ------- null}
+ -t 0.23 -s 2 -d 3 -p cbr -e 1000 -c 2 -i 37 -a 2 -x {1.0 3.1 27 ------- null}
r -t 0.232213333333333 -s 2 -d 3 -p tcp -e 1040 -c 1 -i 33 -a 1 -x {0.0 3.0 3 ------- null}
+ -t 0.232213333333333 -s 3 -d 2 -p ack -e 40 -c 1 -i 40 -a 1 -x {3.0 0.0 3 ------- null}
- -t 0.232213333333333 -s 3 -d 2 -p ack -e 40 -c 1 -i 40 -a 1 -x {3.0 0.0 3 ------- null}
h -t 0.232213333333333 -s 3 -d 2 -p ack -e 40 -c 1 -i 40 -a 1 -x {3.0 0.0 -1 ------- null}
- -t 0.233093333333333 -s 2 -d 3 -p tcp -e 1040 -c 1 -i 35 -a 1 -x {0.0 3.0 5 ------- null}
h -t 0.233093333333333 -s 2 -d 3 -p tcp -e 1040 -c 1 -i 35 -a 1 -x {0.0 3.0 -1 ------- null}
r -t 0.234 -s 1 -d 2 -p cbr -e 1000 -c 2 -i 38 -a 2 -x {1.0 3.1 28 ------- null}
+ -t 0.234 -s 2 -d 3 -p cbr -e 1000 -c 2 -i 38 -a 2 -x {1.0 3.1 28 ------- null}
r -t 0.237546666666667 -s 2 -d 3 -p cbr -e 1000 -c 2 -i 32 -a 2 -x {1.0 3.1 26 ------- null}
r -t 0.238 -s 1 -d 2 -p cbr -e 1000 -c 2 -i 39 -a 2 -x {1.0 3.1 29 ------- null}
+ -t 0.238 -s 2 -d 3 -p cbr -e 1000 -c 2 -i 39 -a 2 -x {1.0 3.1 29 ------- null}
d -t 0.238 -s 2 -d 3 -p cbr -e 1000 -c 2 -i 39 -a 2 -x {1.0 3.1 29 ------- null}
- -t 0.23864 -s 2 -d 3 -p tcp -e 1040 -c 1 -i 36 -a 1 -x {0.0 3.0 6 ------- null}
h -t 0.23864 -s 2 -d 3 -p tcp -e 1040 -c 1 -i 36 -a 1 -x {0.0 3.0 -1 ------- null}
+ -t 0.24 -s 1 -d 2 -p cbr -e 1000 -c 2 -i 41 -a 2 -x {1.0 3.1 30 ------- null}
- -t 0.24 -s 1 -d 2 -p cbr -e 1000 -c 2 -i 41 -a 2 -x {1.0 3.1 30 ------- null}
h -t 0.24 -s 1 -d 2 -p cbr -e 1000 -c 2 -i 41 -a 2 -x {1.0 3.1 -1 ------- null}
+ -t 0.24 -s 1 -d 2 -p cbr -e 1000 -c 2 -i 42 -a 2 -x {1.0 3.1 31 ------- null}
+ -t 0.24 -s 1 -d 2 -p cbr -e 1000 -c 2 -i 43 -a 2 -x {1.0 3.1 32 ------- null}
r -t 0.242426666666667 -s 3 -d 2 -p ack -e 40 -c 1 -i 40 -a 1 -x {3.0 0.0 3 ------- null}
+ -t 0.242426666666667 -s 2 -d 0 -p ack -e 40 -c 1 -i 40 -a 1 -x {3.0 0.0 3 ------- null}
- -t 0.242426666666667 -s 2 -d 0 -p ack -e 40 -c 1 -i 40 -a 1 -x {3.0 0.0 3 ------- null}
h -t 0.242426666666667 -s 2 -d 0 -p ack -e 40 -c 1 -i 40 -a 1 -x {3.0 0.0 -1 ------- null}
r -t 0.243093333333333 -s 2 -d 3 -p tcp -e 1040 -c 1 -i 34 -a 1 -x {0.0 3.0 4 ------- null}
+ -t 0.243093333333333 -s 3 -d 2 -p ack -e 40 -c 1 -i 44 -a 1 -x {3.0 0.0 4 ------- null}
- -t 0.243093333333333 -s 3 -d 2 -p ack -e 40 -c 1 -i 44 -a 1 -x {3.0 0.0 4 ------- null}
h -t 0.243093333333333 -s 3 -d 2 -p ack -e 40 -c 1 -i 44 -a 1 -x {3.0 0.0 -1 ------- null}
- -t 0.244 -s 1 -d 2 -p cbr -e 1000 -c 2 -i 42 -a 2 -x {1.0 3.1 31 ------- null}
h -t 0.244 -s 1 -d 2 -p cbr -e 1000 -c 2 -i 42 -a 2 -x {1.0 3.1 -1 ------- null}
- -t 0.244186666666667 -s 2 -d 3 -p cbr -e 1000 -c 2 -i 37 -a 2 -x {1.0 3.1 27 ------- null}
h -t 0.244186666666667 -s 2 -d 3 -p cbr -e 1000 -c 2 -i 37 -a 2 -x {1.0 3.1 -1 ------- null}
- -t 0.248 -s 1 -d 2 -p cbr -e 1000 -c 2 -i 43 -a 2 -x {1.0 3.1 32 ------- null}
h -t 0.248 -s 1 -d 2 -p cbr -e 1000 -c 2 -i 43 -a 2 -x {1.0 3.1 -1 ------- null}
r -t 0.24864 -s 2 -d 3 -p tcp -e 1040 -c 1 -i 35 -a 1 -x {0.0 3.0 5 ------- null}
+ -t 0.24864 -s 3 -d 2 -p ack -e 40 -c 1 -i 45 -a 1 -x {3.0 0.0 5 ------- null}
- -t 0.24864 -s 3 -d 2 -p ack -e 40 -c 1 -i 45 -a 1 -x {3.0 0.0 5 ------- null}
h -t 0.24864 -s 3 -d 2 -p ack -e 40 -c 1 -i 45 -a 1 -x {3.0 0.0 -1 ------- null}
- -t 0.24952 -s 2 -d 3 -p cbr -e 1000 -c 2 -i 38 -a 2 -x {1.0 3.1 28 ------- null}
h -t 0.24952 -s 2 -d 3 -p cbr -e 1000 -c 2 -i 38 -a 2 -x {1.0 3.1 -1 ------- null}
r -t 0.252586666666667 -s 2 -d 0 -p ack -e 40 -c 1 -i 40 -a 1 -x {3.0 0.0 3 ------- null}
+ -t 0.252586666666667 -s 0 -d 2 -p tcp -e 1040 -c 1 -i 46 -a 1 -x {0.0 3.0 7 ------- null}
- -t 0.252586666666667 -s 0 -d 2 -p tcp -e 1040 -c 1 -i 46 -a 1 -x {0.0 3.0 7 ------- null}
h -t 0.252586666666667 -s 0 -d 2 -p tcp -e 1040 -c 1 -i 46 -a 1 -x {0.0 3.0 -1 ------- null}
+ -t 0.252586666666667 -s 0 -d 2 -p tcp -e 1040 -c 1 -i 47 -a 1 -x {0.0 3.0 8 ------- null}
r -t 0.253306666666667 -s 3 -d 2 -p ack -e 40 -c 1 -i 44 -a 1 -x {3.0 0.0 4 ------- null}
+ -t 0.253306666666667 -s 2 -d 0 -p ack -e 40 -c 1 -i 44 -a 1 -x {3.0 0.0 4 ------- null}
- -t 0.253306666666667 -s 2 -d 0 -p ack -e 40 -c 1 -i 44 -a 1 -x {3.0 0.0 4 ------- null}
h -t 0.253306666666667 -s 2 -d 0 -p ack -e 40 -c 1 -i 44 -a 1 -x {3.0 0.0 -1 ------- null}