V -t * -v 1.0a5 -a 0
A -t * -n 1 -p 0 -o 0x7fffffff -c 30 -a 1
A -t * -h 1 -m 1073741823 -s 0
c -t * -i 1 -n Blue
c -t * -i 2 -n Red
n -t * -a 4 -s 4 -S UP -v circle -c black -i black
n -t * -a 0 -s 0 -S UP -v circle -c black -i black
n -t * -a 1 -s 1 -S UP -v circle -c black -i black
n -t * -a 2 -s 2 -S UP -v circle -c black -i black
n -t * -a 3 -s 3 -S UP -v circle -c black -i black
l -t * -s 0 -d 2 -S UP -r 2000000 -D 0.01 -c black -o right-down
l -t * -s 1 -d 2 -S UP -r 2000000 -D 0.01 -c black -o right-up
l -t * -s 2 -d 3 -S UP -r 2000000 -D 0.01 -c black -o right
l -t * -s 0 -d 4 -S UP -r 2000000 -D 0.01 -c black -o left-down
l -t * -s 1 -d 4 -S UP -r 2000000 -D 0.01 -c black -o left-up
q -t * -s 3 -d 2 -a 0.5
q -t * -s 2 -d 3 -a 0.5
+ -t 0 -s 3 -d 2 -p cbr -e 1000 -c 2 -i 0 -a 2 -x {3.1 4.1 0 ------- null}
- -t 0 -s 3 -d 2 -p cbr -e 1000 -c 2 -i 0 -a 2 -x {3.1 4.1 0 ------- null}
h -t 0 -s 3 -d 2 -p cbr -e 1000 -c 2 -i 0 -a 2 -x {3.1 4.1 -1 ------- null}
+ -t 0.008 -s 3 -d 2 -p cbr -e 1000 -c 2 -i 1 -a 2 -x {3.1 4.1 1 ------- null}
- -t 0.008 -s 3 -d 2 -p cbr -e 1000 -c 2 -i 1 -a 2 -x {3.1 4.1 1 ------- null}
h -t 0.008 -s 3 -d 2 -p cbr -e 1000 -c 2 -i 1 -a 2 -x {3.1 4.1 -1 ------- null}
r -t 0.014 -s 3 -d 2 -p cbr -e 1000 -c 2 -i 0 -a 2 -x {3.1 4.1 0 ------- null}
+ -t 0.014 -s 2 -d 0 -p cbr -e 1000 -c 2 -i 0 -a 2 -x {3.1 4.1 0 ------- null}
- -t 0.014 -s 2 -d 0 -p cbr -e 1000 -c 2 -i 0 -a 2 -x {3.1 4.1 0 ------- null}
h -t 0.014 -s 2 -d 0 -p cbr -e 1000 -c 2 -i 0 -a 2 -x {3.1 4.1 -1 ------- null}
+ -t 0.016 -s 3 -d 2 -p cbr -e 1000 -c 2 -i 2 -a 2 -x {3.1 4.1 2 ------- null}
- -t 0.016 -s 3 -d 2 -p cbr -e 1000 -c 2 -i 2 -a 2 -x {3.1 4.1 2 ------- null}
h -t 0.016 -s 3 -d 2 -p cbr -e 1000 -c 2 -i 2 -a 2 -x {3.1 4.1 -1 ------- null}
r -t 0.022 -s 3 -d 2 -p cbr -e 1000 -c 2 -i 1 -a 2 -x {3.1 4.1 1 ------- null}
+ -t 0.022 -s 2 -d 0 -p cbr -e 1000 -c 2 -i 1 -a 2 -x {3.1 4.1 1 ------- null}
- -t 0.022 -s 2 -d 0 -p cbr -e 1000 -c 2 -i 1 -a 2 -x {3.1 4.1 1 ------- null}
h -t 0.022 -s 2 -d 0 -p cbr -e 1000 -c 2 -i 1 -a 2 -x {3.1 4.1 -1 ------- null}
+ -t 0.024 -s 3 -d 2 -p cbr -e 1000 -c 2 -i 3 -a 2 -x {3.1 4.1 3 ------- null}
- -t 0.024 -s 3 -d 2 -p cbr -e 1000 -c 2 -i 3 -a 2 -x {3.1 4.1 3 ------- null}
h -t 0.024 -s 3 -d 2 -p cbr -e 1000 -c 2 -i 3 -a 2 -x {3.1 4.1 -1 ------- null}
r -t 0.028 -s 2 -d 0 -p cbr -e 1000 -c 2 -i 0 -a 2 -x {3.1 4.1 0 ------- null}
+ -t 0.028 -s 0 -d 4 -p cbr -e 1000 -c 2 -i 0 -a 2 -x {3.1 4.1 0 ------- null}
- -t 0.028 -s 0 -d 4 -p cbr -e 1000 -c 2 -i 0 -a 2 -x {3.1 4.1 0 ------- null}
h -t 0.028 -s 0 -d 4 -p cbr -e 1000 -c 2 -i 0 -a 2 -x {3.1 4.1 -1 ------- null}
r -t 0.03 -s 3 -d 2 -p cbr -e 1000 -c 2 -i 2 -a 2 -x {3.1 4.1 2 ------- null}
+ -t 0.03 -s 2 -d 0 -p cbr -e 1000 -c 2 -i 2 -a 2 -x {3.1 4.1 2 ------- null}
- -t 0.03 -s 2 -d 0 -p cbr -e 1000 -c 2 -i 2 -a 2 -x {3.1 4.1 2 ------- null}
h -t 0.03 -s 2 -d 0 -p cbr -e 1000 -c 2 -i 2 -a 2 -x {3.1 4.1 -1 ------- null}
+ -t 0.032 -s 3 -d 2 -p cbr -e 1000 -c 2 -i 4 -a 2 -x {3.1 4.1 4 ------- null}
- -t 0.032 -s 3 -d 2 -p cbr -e 1000 -c 2 -i 4 -a 2 -x {3.1 4.1 4 ------- null}
h -t 0.032 -s 3 -d 2 -p cbr -e 1000 -c 2 -i 4 -a 2 -x {3.1 4.1 -1 ------- null}
r -t 0.036 -s 2 -d 0 -p cbr -e 1000 -c 2 -i 1 -a 2 -x {3.1 4.1 1 ------- null}
+ -t 0.036 -s 0 -d 4 -p cbr -e 1000 -c 2 -i 1 -a 2 -x {3.1 4.1 1 ------- null}
- -t 0.036 -s 0 -d 4 -p cbr -e 1000 -c 2 -i 1 -a 2 -x {3.1 4.1 1 ------- null}
h -t 0.036 -s 0 -d 4 -p cbr -e 1000 -c 2 -i 1 -a 2 -x {3.1 4.1 -1 ------- null}
r -t 0.038 -s 3 -d 2 -p cbr -e 1000 -c 2 -i 3 -a 2 -x {3.1 4.1 3 ------- null}
+ -t 0.038 -s 2 -d 0 -p cbr -e 1000 -c 2 -i 3 -a 2 -x {3.1 4.1 3 ------- null}
- -t 0.038 -s 2 -d 0 -p cbr -e 1000 -c 2 -i 3 -a 2 -x {3.1 4.1 3 ------- null}
h -t 0.038 -s 2 -d 0 -p cbr -e 1000 -c 2 -i 3 -a 2 -x {3.1 4.1 -1 ------- null}
+ -t 0.04 -s 3 -d 2 -p cbr -e 1000 -c 2 -i 5 -a 2 -x {3.1 4.1 5 ------- null}
- -t 0.04 -s 3 -d 2 -p cbr -e 1000 -c 2 -i 5 -a 2 -x {3.1 4.1 5 ------- null}
h -t 0.04 -s 3 -d 2 -p cbr -e 1000 -c 2 -i 5 -a 2 -x {3.1 4.1 -1 ------- null}
r -t 0.042 -s 0 -d 4 -p cbr -e 1000 -c 2 -i 0 -a 2 -x {3.1 4.1 0 ------- null}
r -t 0.044 -s 2 -d 0 -p cbr -e 1000 -c 2 -i 2 -a 2 -x {3.1 4.1 2 ------- null}
+ -t 0.044 -s 0 -d 4 -p cbr -e 1000 -c 2 -i 2 -a 2 -x {3.1 4.1 2 ------- null}
- -t 0.044 -s 0 -d 4 -p cbr -e 1000 -c 2 -i 2 -a 2 -x {3.1 4.1 2 ------- null}
h -t 0.044 -s 0 -d 4 -p cbr -e 1000 -c 2 -i 2 -a 2 -x {3.1 4.1 -1 ------- null}
r -t 0.046 -s 3 -d 2 -p cbr -e 1000 -c 2 -i 4 -a 2 -x {3.1 4.1 4 ------- null}
+ -t 0.046 -s 2 -d 0 -p cbr -e 1000 -c 2 -i 4 -a 2 -x {3.1 4.1 4 ------- null}
- -t 0.046 -s 2 -d 0 -p cbr -e 1000 -c 2 -i 4 -a 2 -x {3.1 4.1 4 ------- null}
h -t 0.046 -s 2 -d 0 -p cbr -e 1000 -c 2 -i 4 -a 2 -x {3.1 4.1 -1 ------- null}
+ -t 0.048 -s 3 -d 2 -p cbr -e 1000 -c 2 -i 6 -a 2 -x {3.1 4.1 6 ------- null}
- -t 0.048 -s 3 -d 2 -p cbr -e 1000 -c 2 -i 6 -a 2 -x {3.1 4.1 6 ------- null}
h -t 0.048 -s 3 -d 2 -p cbr -e 1000 -c 2 -i 6 -a 2 -x {3.1 4.1 -1 ------- null}
r -t 0.05 -s 0 -d 4 -p cbr -e 1000 -c 2 -i 1 -a 2 -x {3.1 4.1 1 ------- null}
r -t 0.052 -s 2 -d 0 -p cbr -e 1000 -c 2 -i 3 -a 2 -x {3.1 4.1 3 ------- null}
+ -t 0.052 -s 0 -d 4 -p cbr -e 1000 -c 2 -i 3 -a 2 -x {3.1 4.1 3 ------- null}
- -t 0.052 -s 0 -d 4 -p cbr -e 1000 -c 2 -i 3 -a 2 -x {3.1 4.1 3 ------- null}
h -t 0.052 -s 0 -d 4 -p cbr -e 1000 -c 2 -i 3 -a 2 -x {3.1 4.1 -1 ------- null}
r -t 0.054 -s 3 -d 2 -p cbr -e 1000 -c 2 -i 5 -a 2 -x {3.1 4.1 5 ------- null}
+ -t 0.054 -s 2 -d 0 -p cbr -e 1000 -c 2 -i 5 -a 2 -x {3.1 4.1 5 ------- null}
- -t 0.054 -s 2 -d 0 -p cbr -e 1000 -c 2 -i 5 -a 2 -x {3.1 4.1 5 ------- null}
h -t 0.054 -s 2 -d 0 -p cbr -e 1000 -c 2 -i 5 -a 2 -x {3.1 4.1 -1 ------- null}
+ -t 0.056 -s 3 -d 2 -p cbr -e 1000 -c 2 -i 7 -a 2 -x {3.1 4.1 7 ------- null}
- -t 0.056 -s 3 -d 2 -p cbr -e 1000 -c 2 -i 7 -a 2 -x {3.1 4.1 7 ------- null}
h -t 0.056 -s 3 -d 2 -p cbr -e 1000 -c 2 -i 7 -a 2 -x {3.1 4.1 -1 ------- null}
r -t 0.058 -s 0 -d 4 -p cbr -e 1000 -c 2 -i 2 -a 2 -x {3.1 4.1 2 ------- null}
r -t 0.06 -s 2 -d 0 -p cbr -e 1000 -c 2 -i 4 -a 2 -x {3.1 4.1 4 ------- null}
+ -t 0.06 -s 0 -d 4 -p cbr -e 1000 -c 2 -i 4 -a 2 -x {3.1 4.1 4 ------- null}
- -t 0.06 -s 0 -d 4 -p cbr -e 1000 -c 2 -i 4 -a 2 -x {3.1 4.1 4 ------- null}
h -t 0.06 -s 0 -d 4 -p cbr -e 1000 -c 2 -i 4 -a 2 -x {3.1 4.1 -1 ------- null}
r -t 0.062 -s 3 -d 2 -p cbr -e 1000 -c 2 -i 6 -a 2 -x {3.1 4.1 6 ------- null}
+ -t 0.062 -s 2 -d 0 -p cbr -e 1000 -c 2 -i 6 -a 2 -x {3.1 4.1 6 ------- null}
- -t 0.062 -s 2 -d 0 -p cbr -e 1000 -c 2 -i 6 -a 2 -x {3.1 4.1 6 ------- null}
h -t 0.062 -s 2 -d 0 -p cbr -e 1000 -c 2 -i 6 -a 2 -x {3.1 4.1 -1 ------- null}
+ -t 0.064 -s 3 -d 2 -p cbr -e 1000 -c 2 -i 8 -a 2 -x {3.1 4.1 8 ------- null}
- -t 0.064 -s 3 -d 2 -p cbr -e 1000 -c 2 -i 8 -a 2 -x {3.1 4.1 8 ------- null}
h -t 0.064 -s 3 -d 2 -p cbr -e 1000 -c 2 -i 8 -a 2 -x {3.1 4.1 -1 ------- null}
r -t 0.066 -s 0 -d 4 -p cbr -e 1000 -c 2 -i 3 -a 2 -x {3.1 4.1 3 ------- null}
r -t 0.068 -s 2 -d 0 -p cbr -e 1000 -c 2 -i 5 -a 2 -x {3.1 4.1 5 ------- null}
+ -t 0.068 -s 0 -d 4 -p cbr -e 1000 -c 2 -i 5 -a 2 -x {3.1 4.1 5 ------- null}
- -t 0.068 -s 0 -d 4 -p cbr -e 1000 -c 2 -i 5 -a 2 -x {3.1 4.1 5 ------- null}
h -t 0.068 -s 0 -d 4 -p cbr -e 1000 -c 2 -i 5 -a 2 -x {3.1 4.1 -1 ------- null}
r -t 0.07 -s 3 -d 2 -p cbr -e 1000 -c 2 -i 7 -a 2 -x {3.1 4.1 7 ------- null}
+ -t 0.07 -s 2 -d 0 -p cbr -e 1000 -c 2 -i 7 -a 2 -x {3.1 4.1 7 ------- null}
- -t 0.07 -s 2 -d 0 -p cbr -e 1000 -c 2 -i 7 -a 2 -x {3.1 4.1 7 ------- null}
h -t 0.07 -s 2 -d 0 -p cbr -e 1000 -c 2 -i 7 -a 2 -x {3.1 4.1 -1 ------- null}
+ -t 0.072 -s 3 -d 2 -p cbr -e 1000 -c 2 -i 9 -a 2 -x {3.1 4.1 9 ------- null}
- -t 0.072 -s 3 -d 2 -p cbr -e 1000 -c 2 -i 9 -a 2 -x {3.1 4.1 9 ------- null}
h -t 0.072 -s 3 -d 2 -p cbr -e 1000 -c 2 -i 9 -a 2 -x {3.1 4.1 -1 ------- null}
r -t 0.074 -s 0 -d 4 -p cbr -e 1000 -c 2 -i 4 -a 2 -x {3.1 4.1 4 ------- null}
r -t 0.076 -s 2 -d 0 -p cbr -e 1000 -c 2 -i 6 -a 2 -x {3.1 4.1 6 ------- null}
+ -t 0.076 -s 0 -d 4 -p cbr -e 1000 -c 2 -i 6 -a 2 -x {3.1 4.1 6 ------- null}
- -t 0.076 -s 0 -d 4 -p cbr -e 1000 -c 2 -i 6 -a 2 -x {3.1 4.1 6 ------- null}
h -t 0.076 -s 0 -d 4 -p cbr -e 1000 -c 2 -i 6 -a 2 -x {3.1 4.1 -1 ------- null}
r -t 0.078 -s 3 -d 2 -p cbr -e 1000 -c 2 -i 8 -a 2 -x {3.1 4.1 8 ------- null}
+ -t 0.078 -s 2 -d 0 -p cbr -e 1000 -c 2 -i 8 -a 2 -x {3.1 4.1 8 ------- null}
- -t 0.078 -s 2 -d 0 -p cbr -e 1000 -c 2 -i 8 -a 2 -x {3.1 4.1 8 ------- null}
h -t 0.078 -s 2 -d 0 -p cbr -e 1000 -c 2 -i 8 -a 2 -x {3.1 4.1 -1 ------- null}
+ -t 0.08 -s 3 -d 2 -p cbr -e 1000 -c 2 -i 10 -a 2 -x {3.1 4.1 10 ------- null}
- -t 0.08 -s 3 -d 2 -p cbr -e 1000 -c 2 -i 10 -a 2 -x {3.1 4.1 10 ------- null}
h -t 0.08 -s 3 -d 2 -p cbr -e 1000 -c 2 -i 10 -a 2 -x {3.1 4.1 -1 ------- null}
r -t 0.082 -s 0 -d 4 -p cbr -e 1000 -c 2 -i 5 -a 2 -x {3.1 4.1 5 ------- null}
r -t 0.084 -s 2 -d 0 -p cbr -e 1000 -c 2 -i 7 -a 2 -x {3.1 4.1 7 ------- null}
+ -t 0.084 -s 0 -d 4 -p cbr -e 1000 -c 2 -i 7 -a 2 -x {3.1 4.1 7 ------- null}
- -t 0.084 -s 0 -d 4 -p cbr -e 1000 -c 2 -i 7 -a 2 -x {3.1 4.1 7 ------- null}
h -t 0.084 -s 0 -d 4 -p cbr -e 1000 -c 2 -i 7 -a 2 -x {3.1 4.1 -1 ------- null}
r -t 0.086 -s 3 -d 2 -p cbr -e 1000 -c 2 -i 9 -a 2 -x {3.1 4.1 9 ------- null}
+ -t 0.086 -s 2 -d 0 -p cbr -e 1000 -c 2 -i 9 -a 2 -x {3.1 4.1 9 ------- null}
- -t 0.086 -s 2 -d 0 -p cbr -e 1000 -c 2 -i 9 -a 2 -x {3.1 4.1 9 ------- null}
h -t 0.086 -s 2 -d 0 -p cbr -e 1000 -c 2 -i 9 -a 2 -x {3.1 4.1 -1 ------- null}
+ -t 0.088 -s 3 -d 2 -p cbr -e 1000 -c 2 -i 11 -a 2 -x {3.1 4.1 11 ------- null}
- -t 0.088 -s 3 -d 2 -p cbr -e 1000 -c 2 -i 11 -a 2 -x {3.1 4.1 11 ------- null}
h -t 0.088 -s 3 -d 2 -p cbr -e 1000 -c 2 -i 11 -a 2 -x {3.1 4.1 -1 ------- null}
r -t 0.09 -s 0 -d 4 -p cbr -e 1000 -c 2 -i 6 -a 2 -x {3.1 4.1 6 ------- null}
r -t 0.092 -s 2 -d 0 -p cbr -e 1000 -c 2 -i 8 -a 2 -x {3.1 4.1 8 ------- null}
+ -t 0.092 -s 0 -d 4 -p cbr -e 1000 -c 2 -i 8 -a 2 -x {3.1 4.1 8 ------- null}
- -t 0.092 -s 0 -d 4 -p cbr -e 1000 -c 2 -i 8 -a 2 -x {3.1 4.1 8 ------- null}
h -t 0.092 -s 0 -d 4 -p cbr -e 1000 -c 2 -i 8 -a 2 -x {3.1 4.1 -1 ------- null}
r -t 0.094 -s 3 -d 2 -p cbr -e 1000 -c 2 -i 10 -a 2 -x {3.1 4.1 10 ------- null}
+ -t 0.094 -s 2 -d 0 -p cbr -e 1000 -c 2 -i 10 -a 2 -x {3.1 4.1 10 ------- null}
- -t 0.094 -s 2 -d 0 -p cbr -e 1000 -c 2 -i 10 -a 2 -x {3.1 4.1 10 ------- null}
h -t 0.094 -s 2 -d 0 -p cbr -e 1000 -c 2 -i 10 -a 2 -x {3.1 4.1 -1 ------- null}
+ -t 0.096 -s 3 -d 2 -p cbr -e 1000 -c 2 -i 12 -a 2 -x {3.1 4.1 12 ------- null}
- -t 0.096 -s 3 -d 2 -p cbr -e 1000 -c 2 -i 12 -a 2 -x {3.1 4.1 12 ------- null}
h -t 0.096 -s 3 -d 2 -p cbr -e 1000 -c 2 -i 12 -a 2 -x {3.1 4.1 -1 ------- null}
r -t 0.098 -s 0 -d 4 -p cbr -e 1000 -c 2 -i 7 -a 2 -x {3.1 4.1 7 ------- null}
r -t 0.1 -s 2 -d 0 -p cbr -e 1000 -c 2 -i 9 -a 2 -x {3.1 4.1 9 ------- null}
+ -t 0.1 -s 0 -d 4 -p cbr -e 1000 -c 2 -i 9 -a 2 -x {3.1 4.1 9 ------- null}
- -t 0.1 -s 0 -d 4 -p cbr -e 1000 -c 2 -i 9 -a 2 -x {3.1 4.1 9 ------- null}
h -t 0.1 -s 0 -d 4 -p cbr -e 1000 -c 2 -i 9 -a 2 -x {3.1 4.1 -1 ------- null}
r -t 0.102 -s 3 -d 2 -p cbr -e 1000 -c 2 -i 11 -a 2 -x {3.1 4.1 11 ------- null}
+ -t 0.102 -s 2 -d 0 -p cbr -e 1000 -c 2 -i 11 -a 2 -x {3.1 4.1 11 ------- null}
- -t 0.102 -s 2 -d 0 -p cbr -e 1000 -c 2 -i 11 -a 2 -x {3.1 4.1 11 ------- null}
h -t 0.102 -s 2 -d 0 -p cbr -e 1000 -c 2 -i 11 -a 2 -x {3.1 4.1 -1 ------- null}
+ -t 0.104 -s 3 -d 2 -p cbr -e 1000 -c 2 -i 13 -a 2 -x {3.1 4.1 13 ------- null}
- -t 0.104 -s 3 -d 2 -p cbr -e 1000 -c 2 -i 13 -a 2 -x {3.1 4.1 13 ------- null}
h -t 0.104 -s 3 -d 2 -p cbr -e 1000 -c 2 -i 13 -a 2 -x {3.1 4.1 -1 ------- null}
r -t 0.106 -s 0 -d 4 -p cbr -e 1000 -c 2 -i 8 -a 2 -x {3.1 4.1 8 ------- null}
r -t 0.108 -s 2 -d 0 -p cbr -e 1000 -c 2 -i 10 -a 2 -x {3.1 4.1 10 ------- null}
+ -t 0.108 -s 0 -d 4 -p cbr -e 1000 -c 2 -i 10 -a 2 -x {3.1 4.1 10 ------- null}
- -t 0.108 -s 0 -d 4 -p cbr -e 1000 -c 2 -i 10 -a 2 -x {3.1 4.1 10 ------- null}
h -t 0.108 -s 0 -d 4 -p cbr -e 1000 -c 2 -i 10 -a 2 -x {3.1 4.1 -1 ------- null}
r -t 0.11 -s 3 -d 2 -p cbr -e 1000 -c 2 -i 12 -a 2 -x {3.1 4.1 12 ------- null}
+ -t 0.11 -s 2 -d 0 -p cbr -e 1000 -c 2 -i 12 -a 2 -x {3.1 4.1 12 ------- null}
- -t 0.11 -s 2 -d 0 -p cbr -e 1000 -c 2 -i 12 -a 2 -x {3.1 4.1 12 ------- null}
h -t 0.11 -s 2 -d 0 -p cbr -e 1000 -c 2 -i 12 -a 2 -x {3.1 4.1 -1 ------- null}
+ -t 0.112 -s 3 -d 2 -p cbr -e 1000 -c 2 -i 14 -a 2 -x {3.1 4.1 14 ------- null}
- -t 0.112 -s 3 -d 2 -p cbr -e 1000 -c 2 -i 14 -a 2 -x {3.1 4.1 14 ------- null}
h -t 0.112 -s 3 -d 2 -p cbr -e 1000 -c 2 -i 14 -a 2 -x {3.1 4.1 -1 ------- null}
r -t 0.114 -s 0 -d 4 -p cbr -e 1000 -c 2 -i 9 -a 2 -x {3.1 4.1 9 ------- null}
r -t 0.116 -s 2 -d 0 -p cbr -e 1000 -c 2 -i 11 -a 2 -x {3.1 4.1 11 ------- null}
+ -t 0.116 -s 0 -d 4 -p cbr -e 1000 -c 2 -i 11 -a 2 -x {3.1 4.1 11 ------- null}
- -t 0.116 -s 0 -d 4 -p cbr -e 1000 -c 2 -i 11 -a 2 -x {3.1 4.1 11 ------- null}
h -t 0.116 -s 0 -d 4 -p cbr -e 1000 -c 2 -i 11 -a 2 -x {3.1 4.1 -1 ------- null}
r -t 0.118 -s 3 -d 2 -p cbr -e 1000 -c 2 -i 13 -a 2 -x {3.1 4.1 13 ------- null}
+ -t 0.118 -s 2 -d 0 -p cbr -e 1000 -c 2 -i 13 -a 2 -x {3.1 4.1 13 ------- null}
- -t 0.118 -s 2 -d 0 -p cbr -e 1000 -c 2 -i 13 -a 2 -x {3.1 4.1 13 ------- null}
h -t 0.118 -s 2 -d 0 -p cbr -e 1000 -c 2 -i 13 -a 2 -x {3.1 4.1 -1 ------- null}
+ -t 0.12 -s 3 -d 2 -p cbr -e 1000 -c 2 -i 15 -a 2 -x {3.1 4.1 15 ------- null}
- -t 0.12 -s 3 -d 2 -p cbr -e 1000 -c 2 -i 15 -a 2 -x {3.1 4.1 15 ------- null}
h -t 0.12 -s 3 -d 2 -p cbr -e 1000 -c 2 -i 15 -a 2 -x {3.1 4.1 -1 ------- null}
r -t 0.122 -s 0 -d 4 -p cbr -e 1000 -c 2 -i 10 -a 2 -x {3.1 4.1 10 ------- null}
r -t 0.124 -s 2 -d 0 -p cbr -e 1000 -c 2 -i 12 -a 2 -x {3.1 4.1 12 ------- null}
+ -t 0.124 -s 0 -d 4 -p cbr -e 1000 -c 2 -i 12 -a 2 -x {3.1 4.1 12 ------- null}
- -t 0.124 -s 0 -d 4 -p cbr -e 1000 -c 2 -i 12 -a 2 -x {3.1 4.1 12 ------- null}
h -t 0.124 -s 0 -d 4 -p cbr -e 1000 -c 2 -i 12 -a 2 -x {3.1 4.1 -1 ------- null}
r -t 0.126 -s 3 -d 2 -p cbr -e 1000 -c 2 -i 14 -a 2 -x {3.1 4.1 14 ------- null}
+ -t 0.126 -s 2 -d 0 -p cbr -e 1000 -c 2 -i 14 -a 2 -x {3.1 4.1 14 ------- null}
- -t 0.126 -s 2 -d 0 -p cbr -e 1000 -c 2 -i 14 -a 2 -x {3.1 4.1 14 ------- null}
h -t 0.126 -s 2 -d 0 -p cbr -e 1000 -c 2 -i 14 -a 2 -x {3.1 4.1 -1 ------- null}
+ -t 0.128 -s 3 -d 2 -p cbr -e 1000 -c 2 -i 16 -a 2 -x {3.1 4.1 16 ------- null}
- -t 0.128 -s 3 -d 2 -p cbr -e 1000 -c 2 -i 16 -a 2 -x {3.1 4.1 16 ------- null}
h -t 0.128 -s 3 -d 2 -p cbr -e 1000 -c 2 -i 16 -a 2 -x {3.1 4.1 -1 ------- null}
r -t 0.13 -s 0 -d 4 -p cbr -e 1000 -c 2 -i 11 -a 2 -x {3.1 4.1 11 ------- null}
r -t 0.132 -s 2 -d 0 -p cbr -e 1000 -c 2 -i 13 -a 2 -x {3.1 4.1 13 ------- null}
+ -t 0.132 -s 0 -d 4 -p cbr -e 1000 -c 2 -i 13 -a 2 -x {3.1 4.1 13 ------- null}
- -t 0.132 -s 0 -d 4 -p cbr -e 1000 -c 2 -i 13 -a 2 -x {3.1 4.1 13 ------- null}
h -t 0.132 -s 0 -d 4 -p cbr -e 1000 -c 2 -i 13 -a 2 -x {3.1 4.1 -1 ------- null}
r -t 0.134 -s 3 -d 2 -p cbr -e 1000 -c 2 -i 15 -a 2 -x {3.1 4.1 15 ------- null}
+ -t 0.134 -s 2 -d 0 -p cbr -e 1000 -c 2 -i 15 -a 2 -x {3.1 4.1 15 ------- null}
- -t 0.134 -s 2 -d 0 -p cbr -e 1000 -c 2 -i 15 -a 2 -x {3.1 4.1 15 ------- null}
h -t 0.134 -s 2 -d 0 -p cbr -e 1000 -c 2 -i 15 -a 2 -x {3.1 4.1 -1 ------- null}
+ -t 0.136 -s 3 -d 2 -p cbr -e 1000 -c 2 -i 17 -a 2 -x {3.1 4.1 17 ------- null}
- -t 0.136 -s 3 -d 2 -p cbr -e 1000 -c 2 -i 17 -a 2 -x {3.1 4.1 17 ------- null}
h -t 0.136 -s 3 -d 2 -p cbr -e 1000 -c 2 -i 17 -a 2 -x {3.1 4.1 -1 ------- null}
r -t 0.138 -s 0 -d 4 -p cbr -e 1000 -c 2 -i 12 -a 2 -x {3.1 4.1 12 ------- null}
r -t 0.14 -s 2 -d 0 -p cbr -e 1000 -c 2 -i 14 -a 2 -x {3.1 4.1 14 ------- null}
+ -t 0.14 -s 0 -d 4 -p cbr -e 1000 -c 2 -i 14 -a 2 -x {3.1 4.1 14 ------- null}
- -t 0.14 -s 0 -d 4 -p cbr -e 1000 -c 2 -i 14 -a 2 -x {3.1 4.1 14 ------- null}
h -t 0.14 -s 0 -d 4 -p cbr -e 1000 -c 2 -i 14 -a 2 -x {3.1 4.1 -1 ------- null}
r -t 0.142 -s 3 -d 2 -p cbr -e 1000 -c 2 -i 16 -a 2 -x {3.1 4.1 16 ------- null}
+ -t 0.142 -s 2 -d 0 -p cbr -e 1000 -c 2 -i 16 -a 2 -x {3.1 4.1 16 ------- null}
- -t 0.142 -s 2 -d 0 -p cbr -e 1000 -c 2 -i 16 -a 2 -x {3.1 4.1 16 ------- null}
h -t 0.142 -s 2 -d 0 -p cbr -e 1000 -c 2 -i 16 -a 2 -x {3.1 4.1 -1 ------- null}
+ -t 0.144 -s 3 -d 2 -p cbr -e 1000 -c 2 -i 18 -a 2 -x {3.1 4.1 18 ------- null}
- -t 0.144 -s 3 -d 2 -p cbr -e 1000 -c 2 -i 18 -a 2 -x {3.1 4.1 18 ------- null}
h -t 0.144 -s 3 -d 2 -p cbr -e 1000 -c 2 -i 18 -a 2 -x {3.1 4.1 -1 ------- null}
r -t 0.146 -s 0 -d 4 -p cbr -e 1000 -c 2 -i 13 -a 2 -x {3.1 4.1 13 ------- null}
r -t 0.148 -s 2 -d 0 -p cbr -e 1000 -c 2 -i 15 -a 2 -x {3.1 4.1 15 ------- null}
+ -t 0.148 -s 0 -d 4 -p cbr -e 1000 -c 2 -i 15 -a 2 -x {3.1 4.1 15 ------- null}
- -t 0.148 -s 0 -d 4 -p cbr -e 1000 -c 2 -i 15 -a 2 -x {3.1 4.1 15 ------- null}
h -t 0.148 -s 0 -d 4 -p cbr -e 1000 -c 2 -i 15 -a 2 -x {3.1 4.1 -1 ------- null}
r -t 0.15 -s 3 -d 2 -p cbr -e 1000 -c 2 -i 17 -a 2 -x {3.1 4.1 17 ------- null}
+ -t 0.15 -s 2 -d 0 -p cbr -e 1000 -c 2 -i 17 -a 2 -x {3.1 4.1 17 ------- null}
- -t 0.15 -s 2 -d 0 -p cbr -e 1000 -c 2 -i 17 -a 2 -x {3.1 4.1 17 ------- null}
h -t 0.15 -s 2 -d 0 -p cbr -e 1000 -c 2 -i 17 -a 2 -x {3.1 4.1 -1 ------- null}
+ -t 0.152 -s 3 -d 2 -p cbr -e 1000 -c 2 -i 19 -a 2 -x {3.1 4.1 19 ------- null}
- -t 0.152 -s 3 -d 2 -p cbr -e 1000 -c 2 -i 19 -a 2 -x {3.1 4.1 19 ------- null}
h -t 0.152 -s 3 -d 2 -p cbr -e 1000 -c 2 -i 19 -a 2 -x {3.1 4.1 -1 ------- null}
r -t 0.154 -s 0 -d 4 -p cbr -e 1000 -c 2 -i 14 -a 2 -x {3.1 4.1 14 ------- null}
r -t 0.156 -s 2 -d 0 -p cbr -e 1000 -c 2 -i 16 -a 2 -x {3.1 4.1 16 ------- null}
+ -t 0.156 -s 0 -d 4 -p cbr -e 1000 -c 2 -i 16 -a 2 -x {3.1 4.1 16 ------- null}
- -t 0.156 -s 0 -d 4 -p cbr -e 1000 -c 2 -i 16 -a 2 -x {3.1 4.1 16 ------- null}
h -t 0.156 -s 0 -d 4 -p cbr -e 1000 -c 2 -i 16 -a 2 -x {3.1 4.1 -1 ------- null}
r -t 0.158 -s 3 -d 2 -p cbr -e 1000 -c 2 -i 18 -a 2 -x {3.1 4.1 18 ------- null}
+ -t 0.158 -s 2 -d 0 -p cbr -e 1000 -c 2 -i 18 -a 2 -x {3.1 4.1 18 ------- null}
- -t 0.158 -s 2 -d 0 -p cbr -e 1000 -c 2 -i 18 -a 2 -x {3.1 4.1 18 ------- null}
h -t 0.158 -s 2 -d 0 -p cbr -e 1000 -c 2 -i 18 -a 2 -x {3.1 4.1 -1 ------- null}
+ -t 0.16 -s 3 -d 2 -p cbr -e 1000 -c 2 -i 20 -a 2 -x {3.1 4.1 20 ------- null}
- -t 0.16 -s 3 -d 2 -p cbr -e 1000 -c 2 -i 20 -a 2 -x {3.1 4.1 20 ------- null}
h -t 0.16 -s 3 -d 2 -p cbr -e 1000 -c 2 -i 20 -a 2 -x {3.1 4.1 -1 ------- null}
r -t 0.162 -s 0 -d 4 -p cbr -e 1000 -c 2 -i 15 -a 2 -x {3.1 4.1 15 ------- null}
r -t 0.164 -s 2 -d 0 -p cbr -e 1000 -c 2 -i 17 -a 2 -x {3.1 4.1 17 ------- null}
+ -t 0.164 -s 0 -d 4 -p cbr -e 1000 -c 2 -i 17 -a 2 -x {3.1 4.1 17 ------- null}
- -t 0.164 -s 0 -d 4 -p cbr -e 1000 -c 2 -i 17 -a 2 -x {3.1 4.1 17 ------- null}
h -t 0.164 -s 0 -d 4 -p cbr -e 1000 -c 2 -i 17 -a 2 -x {3.1 4.1 -1 ------- null}
r -t 0.166 -s 3 -d 2 -p cbr -e 1000 -c 2 -i 19 -a 2 -x {3.1 4.1 19 ------- null}
+ -t 0.166 -s 2 -d 0 -p cbr -e 1000 -c 2 -i 19 -a 2 -x {3.1 4.1 19 ------- null}
- -t 0.166 -s 2 -d 0 -p cbr -e 1000 -c 2 -i 19 -a 2 -x {3.1 4.1 19 ------- null}
h -t 0.166 -s 2 -d 0 -p cbr -e 1000 -c 2 -i 19 -a 2 -x {3.1 4.1 -1 ------- null}
+ -t 0.168 -s 3 -d 2 -p cbr -e 1000 -c 2 -i 21 -a 2 -x {3.1 4.1 21 ------- null}
- -t 0.168 -s 3 -d 2 -p cbr -e 1000 -c 2 -i 21 -a 2 -x {3.1 4.1 21 ------- null}
h -t 0.168 -s 3 -d 2 -p cbr -e 1000 -c 2 -i 21 -a 2 -x {3.1 4.1 -1 ------- null}
r -t 0.17 -s 0 -d 4 -p cbr -e 1000 -c 2 -i 16 -a 2 -x {3.1 4.1 16 ------- null}
r -t 0.172 -s 2 -d 0 -p cbr -e 1000 -c 2 -i 18 -a 2 -x {3.1 4.1 18 ------- null}
+ -t 0.172 -s 0 -d 4 -p cbr -e 1000 -c 2 -i 18 -a 2 -x {3.1 4.1 18 ------- null}
- -t 0.172 -s 0 -d 4 -p cbr -e 1000 -c 2 -i 18 -a 2 -x {3.1 4.1 18 ------- null}
h -t 0.172 -s 0 -d 4 -p cbr -e 1000 -c 2 -i 18 -a 2 -x {3.1 4.1 -1 ------- null}
r -t 0.174 -s 3 -d 2 -p cbr -e 1000 -c 2 -i 20 -a 2 -x {3.1 4.1 20 ------- null}
+ -t 0.174 -s 2 -d 0 -p cbr -e 1000 -c 2 -i 20 -a 2 -x {3.1 4.1 20 ------- null}
- -t 0.174 -s 2 -d 0 -p cbr -e 1000 -c 2 -i 20 -a 2 -x {3.1 4.1 20 ------- null}
h -t 0.174 -s 2 -d 0 -p cbr -e 1000 -c 2 -i 20 -a 2 -x {3.1 4.1 -1 ------- null}
+ -t 0.176 -s 3 -d 2 -p cbr -e 1000 -c 2 -i 22 -a 2 -x {3.1 4.1 22 ------- null}
- -t 0.176 -s 3 -d 2 -p cbr -e 1000 -c 2 -i 22 -a 2 -x {3.1 4.1 22 ------- null}
h -t 0.176 -s 3 -d 2 -p cbr -e 1000 -c 2 -i 22 -a 2 -x {3.1 4.1 -1 ------- null}
r -t 0.178 -s 0 -d 4 -p cbr -e 1000 -c 2 -i 17 -a 2 -x {3.1 4.1 17 ------- null}
r -t 0.18 -s 2 -d 0 -p cbr -e 1000 -c 2 -i 19 -a 2 -x {3.1 4.1 19 ------- null}
+ -t 0.18 -s 0 -d 4 -p cbr -e 1000 -c 2 -i 19 -a 2 -x {3.1 4.1 19 ------- null}
- -t 0.18 -s 0 -d 4 -p cbr -e 1000 -c 2 -i 19 -a 2 -x {3.1 4.1 19 ------- null}
h -t 0.18 -s 0 -d 4 -p cbr -e 1000 -c 2 -i 19 -a 2 -x {3.1 4.1 -1 ------- null}
r -t 0.182 -s 3 -d 2 -p cbr -e 1000 -c 2 -i 21 -a 2 -x {3.1 4.1 21 ------- null}
+ -t 0.182 -s 2 -d 0 -p cbr -e 1000 -c 2 -i 21 -a 2 -x {3.1 4.1 21 ------- null}
- -t 0.182 -s 2 -d 0 -p cbr -e 1000 -c 2 -i 21 -a 2 -x {3.1 4.1 21 ------- null}
h -t 0.182 -s 2 -d 0 -p cbr -e 1000 -c 2 -i 21 -a 2 -x {3.1 4.1 -1 ------- null}
+ -t 0.184 -s 3 -d 2 -p cbr -e 1000 -c 2 -i 23 -a 2 -x {3.1 4.1 23 ------- null}
- -t 0.184 -s 3 -d 2 -p cbr -e 1000 -c 2 -i 23 -a 2 -x {3.1 4.1 23 ------- null}
h -t 0.184 -s 3 -d 2 -p cbr -e 1000 -c 2 -i 23 -a 2 -x {3.1 4.1 -1 ------- null}
r -t 0.186 -s 0 -d 4 -p cbr -e 1000 -c 2 -i 18 -a 2 -x {3.1 4.1 18 ------- null}
r -t 0.188 -s 2 -d 0 -p cbr -e 1000 -c 2 -i 20 -a 2 -x {3.1 4.1 20 ------- null}
+ -t 0.188 -s 0 -d 4 -p cbr -e 1000 -c 2 -i 20 -a 2 -x {3.1 4.1 20 ------- null}
- -t 0.188 -s 0 -d 4 -p cbr -e 1000 -c 2 -i 20 -a 2 -x {3.1 4.1 20 ------- null}
h -t 0.188 -s 0 -d 4 -p cbr -e 1000 -c 2 -i 20 -a 2 -x {3.1 4.1 -1 ------- null}
r -t 0.19 -s 3 -d 2 -p cbr -e 1000 -c 2 -i 22 -a 2 -x {3.1 4.1 22 ------- null}
+ -t 0.19 -s 2 -d 0 -p cbr -e 1000 -c 2 -i 22 -a 2 -x {3.1 4.1 22 ------- null}
- -t 0.19 -s 2 -d 0 -p cbr -e 1000 -c 2 -i 22 -a 2 -x {3.1 4.1 22 ------- null}
h -t 0.19 -s 2 -d 0 -p cbr -e 1000 -c 2 -i 22 -a 2 -x {3.1 4.1 -1 ------- null}
+ -t 0.192 -s 3 -d 2 -p cbr -e 1000 -c 2 -i 24 -a 2 -x {3.1 4.1 24 ------- null}
- -t 0.192 -s 3 -d 2 -p cbr -e 1000 -c 2 -i 24 -a 2 -x {3.1 4.1 24 ------- null}
h -t 0.192 -s 3 -d 2 -p cbr -e 1000 -c 2 -i 24 -a 2 -x {3.1 4.1 -1 ------- null}
r -t 0.194 -s 0 -d 4 -p cbr -e 1000 -c 2 -i 19 -a 2 -x {3.1 4.1 19 ------- null}
r -t 0.196 -s 2 -d 0 -p cbr -e 1000 -c 2 -i 21 -a 2 -x {3.1 4.1 21 ------- null}
+ -t 0.196 -s 0 -d 4 -p cbr -e 1000 -c 2 -i 21 -a 2 -x {3.1 4.1 21 ------- null}
- -t 0.196 -s 0 -d 4 -p cbr -e 1000 -c 2 -i 21 -a 2 -x {3.1 4.1 21 ------- null}
h -t 0.196 -s 0 -d 4 -p cbr -e 1000 -c 2 -i 21 -a 2 -x {3.1 4.1 -1 ------- null}
r -t 0.198 -s 3 -d 2 -p cbr -e 1000 -c 2 -i 23 -a 2 -x {3.1 4.1 23 ------- null}
+ -t 0.198 -s 2 -d 0 -p cbr -e 1000 -c 2 -i 23 -a 2 -x {3.1 4.1 23 ------- null}
- -t 0.198 -s 2 -d 0 -p cbr -e 1000 -c 2 -i 23 -a 2 -x {3.1 4.1 23 ------- null}
h -t 0.198 -s 2 -d 0 -p cbr -e 1000 -c 2 -i 23 -a 2 -x {3.1 4.1 -1 ------- null}
+ -t 0.2 -s 3 -d 2 -p cbr -e 1000 -c 2 -i 25 -a 2 -x {3.1 4.1 25 ------- null}
- -t 0.2 -s 3 -d 2 -p cbr -e 1000 -c 2 -i 25 -a 2 -x {3.1 4.1 25 ------- null}
h -t 0.2 -s 3 -d 2 -p cbr -e 1000 -c 2 -i 25 -a 2 -x {3.1 4.1 -1 ------- null}
r -t 0.202 -s 0 -d 4 -p cbr -e 1000 -c 2 -i 20 -a 2 -x {3.1 4.1 20 ------- null}
r -t 0.204 -s 2 -d 0 -p cbr -e 1000 -c 2 -i 22 -a 2 -x {3.1 4.1 22 ------- null}
+ -t 0.204 -s 0 -d 4 -p cbr -e 1000 -c 2 -i 22 -a 2 -x {3.1 4.1 22 ------- null}
- -t 0.204 -s 0 -d 4 -p cbr -e 1000 -c 2 -i 22 -a 2 -x {3.1 4.1 22 ------- null}
h -t 0.204 -s 0 -d 4 -p cbr -e 1000 -c 2 -i 22 -a 2 -x {3.1 4.1 -1 ------- null}
r -t 0.206 -s 3 -d 2 -p cbr -e 1000 -c 2 -i 24 -a 2 -x {3.1 4.1 24 ------- null}
+ -t 0.206 -s 2 -d 0 -p cbr -e 1000 -c 2 -i 24 -a 2 -x {3.1 4.1 24 ------- null}
- -t 0.206 -s 2 -d 0 -p cbr -e 1000 -c 2 -i 24 -a 2 -x {3.1 4.1 24 ------- null}
h -t 0.206 -s 2 -d 0 -p cbr -e 1000 -c 2 -i 24 -a 2 -x {3.1 4.1 -1 ------- null}
+ -t 0.208 -s 3 -d 2 -p cbr -e 1000 -c 2 -i 26 -a 2 -x {3.1 4.1 26 ------- null}
- -t 0.208 -s 3 -d 2 -p cbr -e 1000 -c 2 -i 26 -a 2 -x {3.1 4.1 26 ------- null}
h -t 0.208 -s 3 -d 2 -p cbr -e 1000 -c 2 -i 26 -a 2 -x {3.1 4.1 -1 ------- null}
r -t 0.21 -s 0 -d 4 -p cbr -e 1000 -c 2 -i 21 -a 2 -x {3.1 4.1 21 ------- null}
r -t 0.212 -s 2 -d 0 -p cbr -e 1000 -c 2 -i 23 -a 2 -x {3.1 4.1 23 ------- null}
+ -t 0.212 -s 0 -d 4 -p cbr -e 1000 -c 2 -i 23 -a 2 -x {3.1 4.1 23 ------- null}
- -t 0.212 -s 0 -d 4 -p cbr -e 1000 -c 2 -i 23 -a 2 -x {3.1 4.1 23 ------- null}
h -t 0.212 -s 0 -d 4 -p cbr -e 1000 -c 2 -i 23 -a 2 -x {3.1 4.1 -1 ------- null}
r -t 0.214 -s 3 -d 2 -p cbr -e 1000 -c 2 -i 25 -a 2 -x {3.1 4.1 25 ------- null}
+ -t 0.214 -s 2 -d 0 -p cbr -e 1000 -c 2 -i 25 -a 2 -x {3.1 4.1 25 ------- null}
- -t 0.214 -s 2 -d 0 -p cbr -e 1000 -c 2 -i 25 -a 2 -x {3.1 4.1 25 ------- null}
h -t 0.214 -s 2 -d 0 -p cbr -e 1000 -c 2 -i 25 -a 2 -x {3.1 4.1 -1 ------- null}
+ -t 0.216 -s 3 -d 2 -p cbr -e 1000 -c 2 -i 27 -a 2 -x {3.1 4.1 27 ------- null}
- -t 0.216 -s 3 -d 2 -p cbr -e 1000 -c 2 -i 27 -a 2 -x {3.1 4.1 27 ------- null}
h -t 0.216 -s 3 -d 2 -p cbr -e 1000 -c 2 -i 27 -a 2 -x {3.1 4.1 -1 ------- null}
r -t 0.218 -s 0 -d 4 -p cbr -e 1000 -c 2 -i 22 -a 2 -x {3.1 4.1 22 ------- null}
r -t 0.22 -s 2 -d 0 -p cbr -e 1000 -c 2 -i 24 -a 2 -x {3.1 4.1 24 ------- null}
+ -t 0.22 -s 0 -d 4 -p cbr -e 1000 -c 2 -i 24 -a 2 -x {3.1 4.1 24 ------- null}
- -t 0.22 -s 0 -d 4 -p cbr -e 1000 -c 2 -i 24 -a 2 -x {3.1 4.1 24 ------- null}
h -t 0.22 -s 0 -d 4 -p cbr -e 1000 -c 2 -i 24 -a 2 -x {3.1 4.1 -1 ------- null}
r -t 0.222 -s 3 -d 2 -p cbr -e 1000 -c 2 -i 26 -a 2 -x {3.1 4.1 26 ------- null}
+ -t 0.222 -s 2 -d 0 -p cbr -e 1000 -c 2 -i 26 -a 2 -x {3.1 4.1 26 ------- null}
- -t 0.222 -s 2 -d 0 -p cbr -e 1000 -c 2 -i 26 -a 2 -x {3.1 4.1 26 ------- null}
h -t 0.222 -s 2 -d 0 -p cbr -e 1000 -c 2 -i 26 -a 2 -x {3.1 4.1 -1 ------- null}
+ -t 0.224 -s 3 -d 2 -p cbr -e 1000 -c 2 -i 28 -a 2 -x {3.1 4.1 28 ------- null}
- -t 0.224 -s 3 -d 2 -p cbr -e 1000 -c 2 -i 28 -a 2 -x {3.1 4.1 28 ------- null}
h -t 0.224 -s 3 -d 2 -p cbr -e 1000 -c 2 -i 28 -a 2 -x {3.1 4.1 -1 ------- null}
r -t 0.226 -s 0 -d 4 -p cbr -e 1000 -c 2 -i 23 -a 2 -x {3.1 4.1 23 ------- null}
r -t 0.228 -s 2 -d 0 -p cbr -e 1000 -c 2 -i 25 -a 2 -x {3.1 4.1 25 ------- null}
+ -t 0.228 -s 0 -d 4 -p cbr -e 1000 -c 2 -i 25 -a 2 -x {3.1 4.1 25 ------- null}
- -t 0.228 -s 0 -d 4 -p cbr -e 1000 -c 2 -i 25 -a 2 -x {3.1 4.1 25 ------- null}
h -t 0.228 -s 0 -d 4 -p cbr -e 1000 -c 2 -i 25 -a 2 -x {3.1 4.1 -1 ------- null}
r -t 0.23 -s 3 -d 2 -p cbr -e 1000 -c 2 -i 27 -a 2 -x {3.1 4.1 27 ------- null}
+ -t 0.23 -s 2 -d 0 -p cbr -e 1000 -c 2 -i 27 -a 2 -x {3.1 4.1 27 ------- null}
- -t 0.23 -s 2 -d 0 -p cbr -e 1000 -c 2 -i 27 -a 2 -x {3.1 4.1 27 ------- null}
h -t 0.23 -s 2 -d 0 -p cbr -e 1000 -c 2 -i 27 -a 2 -x {3.1 4.1 -1 ------- null}
+ -t 0.232 -s 3 -d 2 -p cbr -e 1000 -c 2 -i 29 -a 2 -x {3.1 4.1 29 ------- null}
- -t 0.232 -s 3 -d 2 -p cbr -e 1000 -c 2 -i 29 -a 2 -x {3.1 4.1 29 ------- null}
h -t 0.232 -s 3 -d 2 -p cbr -e 1000 -c 2 -i 29 -a 2 -x {3.1 4.1 -1 ------- null}
r -t 0.234 -s 0 -d 4 -p cbr -e 1000 -c 2 -i 24 -a 2 -x {3.1 4.1 24 ------- null}
r -t 0.236 -s 2 -d 0 -p cbr -e 1000 -c 2 -i 26 -a 2 -x {3.1 4.1 26 ------- null}
+ -t 0.236 -s 0 -d 4 -p cbr -e 1000 -c 2 -i 26 -a 2 -x {3.1 4.1 26 ------- null}
- -t 0.236 -s 0 -d 4 -p cbr -e 1000 -c 2 -i 26 -a 2 -x {3.1 4.1 26 ------- null}
h -t 0.236 -s 0 -d 4 -p cbr -e 1000 -c 2 -i 26 -a 2 -x {3.1 4.1 -1 ------- null}
r -t 0.238 -s 3 -d 2 -p cbr -e 1000 -c 2 -i 28 -a 2 -x {3.1 4.1 28 ------- null}
+ -t 0.238 -s 2 -d 0 -p cbr -e 1000 -c 2 -i 28 -a 2 -x {3.1 4.1 28 ------- null}
- -t 0.238 -s 2 -d 0 -p cbr -e 1000 -c 2 -i 28 -a 2 -x {3.1 4.1 28 ------- null}
h -t 0.238 -s 2 -d 0 -p cbr -e 1000 -c 2 -i 28 -a 2 -x {3.1 4.1 -1 ------- null}
+ -t 0.24 -s 3 -d 2 -p cbr -e 1000 -c 2 -i 30 -a 2 -x {3.1 4.1 30 ------- null}
- -t 0.24 -s 3 -d 2 -p cbr -e 1000 -c 2 -i 30 -a 2 -x {3.1 4.1 30 ------- null}
h -t 0.24 -s 3 -d 2 -p cbr -e 1000 -c 2 -i 30 -a 2 -x {3.1 4.1 -1 ------- null}
r -t 0.242 -s 0 -d 4 -p cbr -e 1000 -c 2 -i 25 -a 2 -x {3.1 4.1 25 ------- null}
r -t 0.244 -s 2 -d 0 -p cbr -e 1000 -c 2 -i 27 -a 2 -x {3.1 4.1 27 ------- null}
+ -t 0.244 -s 0 -d 4 -p cbr -e 1000 -c 2 -i 27 -a 2 -x {3.1 4.1 27 ------- null}
- -t 0.244 -s 0 -d 4 -p cbr -e 1000 -c 2 -i 27 -a 2 -x {3.1 4.1 27 ------- null}
h -t 0.244 -s 0 -d 4 -p cbr -e 1000 -c 2 -i 27 -a 2 -x {3.1 4.1 -1 ------- null}
r -t 0.246 -s 3 -d 2 -p cbr -e 1000 -c 2 -i 29 -a 2 -x {3.1 4.1 29 ------- null}
+ -t 0.246 -s 2 -d 0 -p cbr -e 1000 -c 2 -i 29 -a 2 -x {3.1 4.1 29 ------- null}
- -t 0.246 -s 2 -d 0 -p cbr -e 1000 -c 2 -i 29 -a 2 -x {3.1 4.1 29 ------- null}
h -t 0.246 -s 2 -d 0 -p cbr -e 1000 -c 2 -i 29 -a 2 -x {3.1 4.1 -1 ------- null}
+ -t 0.248 -s 3 -d 2 -p cbr -e 1000 -c 2 -i 31 -a 2 -x {3.1 4.1 31 ------- null}
- -t 0.248 -s 3 -d 2 -p cbr -e 1000 -c 2 -i 31 -a 2 -x {3.1 4.1 31 ------- null}
h -t 0.248 -s 3 -d 2 -p cbr -e 1000 -c 2 -i 31 -a 2 -x {3.1 4.1 -1 ------- null}
r -t 0.25 -s 0 -d 4 -p cbr -e 1000 -c 2 -i 26 -a 2 -x {3.1 4.1 26 ------- null}
r -t 0.252 -s 2 -d 0 -p cbr -e 1000 -c 2 -i 28 -a 2 -x {3.1 4.1 28 ------- null}
+ -t 0.252 -s 0 -d 4 -p cbr -e 1000 -c 2 -i 28 -a 2 -x {3.1 4.1 28 ------- null}
- -t 0.252 -s 0 -d 4 -p cbr -e 1000 -c 2 -i 28 -a 2 -x {3.1 4.1 28 ------- null}
h -t 0.252 -s 0 -d 4 -p cbr -e 1000 -c 2 -i 28 -a 2 -x {3.1 4.1 -1 ------- null}
r -t 0.254 -s 3 -d 2 -p cbr -e 1000 -c 2 -i 30 -a 2 -x {3.1 4.1 30 ------- null}
+ -t 0.254 -s 2 -d 0 -p cbr -e 1000 -c 2 -i 30 -a 2 -x {3.1 4.1 30 ------- null}
- -t 0.254 -s 2 -d 0 -p cbr -e 1000 -c 2 -i 30 -a 2 -x {3.1 4.1 30 ------- null}
h -t 0.254 -s 2 -d 0 -p cbr -e 1000 -c 2 -i 30 -a 2 -x {3.1 4.1 -1 ------- null}
+ -t 0.256 -s 3 -d 2 -p cbr -e 1000 -c 2 -i 32 -a 2 -x {3.1 4.1 32 ------- null}