V -t * -v 1.0a5 -a 0
A -t * -n 1 -p 0 -o 0x7fffffff -c 30 -a 1
A -t * -h 1 -m 1073741823 -s 0
c -t * -i 1 -n red
n -t * -a 4 -s 4 -S UP -v circle -c black -i black
n -t * -a 0 -s 0 -S UP -v circle -c black -i black
n -t * -a 5 -s 5 -S UP -v circle -c red -i red
n -t * -a 1 -s 1 -S UP -v circle -c red -i red
n -t * -a 2 -s 2 -S UP -v square -c blue -i blue
n -t * -a 3 -s 3 -S UP -v square -c blue -i blue
l -t * -s 0 -d 2 -S UP -r 500000 -D 0.050000000000000003 -c black -o right-down
l -t * -s 1 -d 2 -S UP -r 500000 -D 0.050000000000000003 -c black -o right-up
l -t * -s 2 -d 3 -S UP -r 500000 -D 0.050000000000000003 -c black -o right
l -t * -s 3 -d 4 -S UP -r 500000 -D 0.050000000000000003 -c black -o right-up
l -t * -s 3 -d 5 -S UP -r 500000 -D 0.050000000000000003 -c black -o right-down
q -t * -s 3 -d 2 -a 0.5
q -t * -s 2 -d 3 -a 0.5
a -t 0 -s 0 -d 4 -n tcp
v -t 0 -e monitor_agent 0 tcp
n -t 0 -s 0 -S DLABEL -l "Sender" -L ""
n -t 0 -s 1 -S DLABEL -l "CBR-sender" -L ""
n -t 0 -s 4 -S DLABEL -l "Receiver" -L ""
n -t 0 -s 5 -S DLABEL -l "CBR-receiver" -L ""
v -t 0 -e sim_annotation 0 1 Stop and Wait with packet loss
v -t 0.05 -e sim_annotation 0.05 2 FTP starts at 0.1
+ -t 0.1 -s 0 -d 2 -p tcp -e 40 -c 0 -i 0 -a 0 -x {0.0 4.0 0 ------- null}
- -t 0.1 -s 0 -d 2 -p tcp -e 40 -c 0 -i 0 -a 0 -x {0.0 4.0 0 ------- null}
h -t 0.1 -s 0 -d 2 -p tcp -e 40 -c 0 -i 0 -a 0 -x {0.0 4.0 -1 ------- null}
+ -t 0.1 -s 1 -d 2 -p cbr -e 500 -c 1 -i 1 -a 1 -x {1.0 5.0 0 ------- null}
- -t 0.1 -s 1 -d 2 -p cbr -e 500 -c 1 -i 1 -a 1 -x {1.0 5.0 0 ------- null}
h -t 0.1 -s 1 -d 2 -p cbr -e 500 -c 1 -i 1 -a 1 -x {1.0 5.0 -1 ------- null}
v -t 0.11 -e sim_annotation 0.11 3 Send Packet_0
+ -t 0.15 -s 1 -d 2 -p cbr -e 500 -c 1 -i 2 -a 1 -x {1.0 5.0 1 ------- null}
- -t 0.15 -s 1 -d 2 -p cbr -e 500 -c 1 -i 2 -a 1 -x {1.0 5.0 1 ------- null}
h -t 0.15 -s 1 -d 2 -p cbr -e 500 -c 1 -i 2 -a 1 -x {1.0 5.0 -1 ------- null}
r -t 0.15064 -s 0 -d 2 -p tcp -e 40 -c 0 -i 0 -a 0 -x {0.0 4.0 0 ------- null}
+ -t 0.15064 -s 2 -d 3 -p tcp -e 40 -c 0 -i 0 -a 0 -x {0.0 4.0 0 ------- null}
- -t 0.15064 -s 2 -d 3 -p tcp -e 40 -c 0 -i 0 -a 0 -x {0.0 4.0 0 ------- null}
h -t 0.15064 -s 2 -d 3 -p tcp -e 40 -c 0 -i 0 -a 0 -x {0.0 4.0 -1 ------- null}
r -t 0.158 -s 1 -d 2 -p cbr -e 500 -c 1 -i 1 -a 1 -x {1.0 5.0 0 ------- null}
+ -t 0.158 -s 2 -d 3 -p cbr -e 500 -c 1 -i 1 -a 1 -x {1.0 5.0 0 ------- null}
- -t 0.158 -s 2 -d 3 -p cbr -e 500 -c 1 -i 1 -a 1 -x {1.0 5.0 0 ------- null}
h -t 0.158 -s 2 -d 3 -p cbr -e 500 -c 1 -i 1 -a 1 -x {1.0 5.0 -1 ------- null}
+ -t 0.2 -s 1 -d 2 -p cbr -e 500 -c 1 -i 3 -a 1 -x {1.0 5.0 2 ------- null}
- -t 0.2 -s 1 -d 2 -p cbr -e 500 -c 1 -i 3 -a 1 -x {1.0 5.0 2 ------- null}
h -t 0.2 -s 1 -d 2 -p cbr -e 500 -c 1 -i 3 -a 1 -x {1.0 5.0 -1 ------- null}
r -t 0.20128 -s 2 -d 3 -p tcp -e 40 -c 0 -i 0 -a 0 -x {0.0 4.0 0 ------- null}
+ -t 0.20128 -s 3 -d 4 -p tcp -e 40 -c 0 -i 0 -a 0 -x {0.0 4.0 0 ------- null}
- -t 0.20128 -s 3 -d 4 -p tcp -e 40 -c 0 -i 0 -a 0 -x {0.0 4.0 0 ------- null}
h -t 0.20128 -s 3 -d 4 -p tcp -e 40 -c 0 -i 0 -a 0 -x {0.0 4.0 -1 ------- null}
r -t 0.208 -s 1 -d 2 -p cbr -e 500 -c 1 -i 2 -a 1 -x {1.0 5.0 1 ------- null}
+ -t 0.208 -s 2 -d 3 -p cbr -e 500 -c 1 -i 2 -a 1 -x {1.0 5.0 1 ------- null}
- -t 0.208 -s 2 -d 3 -p cbr -e 500 -c 1 -i 2 -a 1 -x {1.0 5.0 1 ------- null}
h -t 0.208 -s 2 -d 3 -p cbr -e 500 -c 1 -i 2 -a 1 -x {1.0 5.0 -1 ------- null}
r -t 0.216 -s 2 -d 3 -p cbr -e 500 -c 1 -i 1 -a 1 -x {1.0 5.0 0 ------- null}
+ -t 0.216 -s 3 -d 5 -p cbr -e 500 -c 1 -i 1 -a 1 -x {1.0 5.0 0 ------- null}
- -t 0.216 -s 3 -d 5 -p cbr -e 500 -c 1 -i 1 -a 1 -x {1.0 5.0 0 ------- null}
h -t 0.216 -s 3 -d 5 -p cbr -e 500 -c 1 -i 1 -a 1 -x {1.0 5.0 -1 ------- null}
+ -t 0.25 -s 1 -d 2 -p cbr -e 500 -c 1 -i 4 -a 1 -x {1.0 5.0 3 ------- null}
- -t 0.25 -s 1 -d 2 -p cbr -e 500 -c 1 -i 4 -a 1 -x {1.0 5.0 3 ------- null}
h -t 0.25 -s 1 -d 2 -p cbr -e 500 -c 1 -i 4 -a 1 -x {1.0 5.0 -1 ------- null}
r -t 0.25192 -s 3 -d 4 -p tcp -e 40 -c 0 -i 0 -a 0 -x {0.0 4.0 0 ------- null}
+ -t 0.25192 -s 4 -d 3 -p ack -e 40 -c 0 -i 5 -a 0 -x {4.0 0.0 0 ------- null}
- -t 0.25192 -s 4 -d 3 -p ack -e 40 -c 0 -i 5 -a 0 -x {4.0 0.0 0 ------- null}
h -t 0.25192 -s 4 -d 3 -p ack -e 40 -c 0 -i 5 -a 0 -x {4.0 0.0 -1 ------- null}
r -t 0.258 -s 1 -d 2 -p cbr -e 500 -c 1 -i 3 -a 1 -x {1.0 5.0 2 ------- null}
+ -t 0.258 -s 2 -d 3 -p cbr -e 500 -c 1 -i 3 -a 1 -x {1.0 5.0 2 ------- null}
- -t 0.258 -s 2 -d 3 -p cbr -e 500 -c 1 -i 3 -a 1 -x {1.0 5.0 2 ------- null}
h -t 0.258 -s 2 -d 3 -p cbr -e 500 -c 1 -i 3 -a 1 -x {1.0 5.0 -1 ------- null}
r -t 0.266 -s 2 -d 3 -p cbr -e 500 -c 1 -i 2 -a 1 -x {1.0 5.0 1 ------- null}
+ -t 0.266 -s 3 -d 5 -p cbr -e 500 -c 1 -i 2 -a 1 -x {1.0 5.0 1 ------- null}
- -t 0.266 -s 3 -d 5 -p cbr -e 500 -c 1 -i 2 -a 1 -x {1.0 5.0 1 ------- null}
h -t 0.266 -s 3 -d 5 -p cbr -e 500 -c 1 -i 2 -a 1 -x {1.0 5.0 -1 ------- null}
r -t 0.274 -s 3 -d 5 -p cbr -e 500 -c 1 -i 1 -a 1 -x {1.0 5.0 0 ------- null}
v -t 0.3 -e sim_annotation 0.3 4 Receive Ack_0
+ -t 0.3 -s 1 -d 2 -p cbr -e 500 -c 1 -i 6 -a 1 -x {1.0 5.0 4 ------- null}
- -t 0.3 -s 1 -d 2 -p cbr -e 500 -c 1 -i 6 -a 1 -x {1.0 5.0 4 ------- null}
h -t 0.3 -s 1 -d 2 -p cbr -e 500 -c 1 -i 6 -a 1 -x {1.0 5.0 -1 ------- null}
r -t 0.30256 -s 4 -d 3 -p ack -e 40 -c 0 -i 5 -a 0 -x {4.0 0.0 0 ------- null}
+ -t 0.30256 -s 3 -d 2 -p ack -e 40 -c 0 -i 5 -a 0 -x {4.0 0.0 0 ------- null}
- -t 0.30256 -s 3 -d 2 -p ack -e 40 -c 0 -i 5 -a 0 -x {4.0 0.0 0 ------- null}
h -t 0.30256 -s 3 -d 2 -p ack -e 40 -c 0 -i 5 -a 0 -x {4.0 0.0 -1 ------- null}
r -t 0.308 -s 1 -d 2 -p cbr -e 500 -c 1 -i 4 -a 1 -x {1.0 5.0 3 ------- null}
+ -t 0.308 -s 2 -d 3 -p cbr -e 500 -c 1 -i 4 -a 1 -x {1.0 5.0 3 ------- null}
- -t 0.308 -s 2 -d 3 -p cbr -e 500 -c 1 -i 4 -a 1 -x {1.0 5.0 3 ------- null}
h -t 0.308 -s 2 -d 3 -p cbr -e 500 -c 1 -i 4 -a 1 -x {1.0 5.0 -1 ------- null}
r -t 0.316 -s 2 -d 3 -p cbr -e 500 -c 1 -i 3 -a 1 -x {1.0 5.0 2 ------- null}
+ -t 0.316 -s 3 -d 5 -p cbr -e 500 -c 1 -i 3 -a 1 -x {1.0 5.0 2 ------- null}
- -t 0.316 -s 3 -d 5 -p cbr -e 500 -c 1 -i 3 -a 1 -x {1.0 5.0 2 ------- null}
h -t 0.316 -s 3 -d 5 -p cbr -e 500 -c 1 -i 3 -a 1 -x {1.0 5.0 -1 ------- null}
r -t 0.324 -s 3 -d 5 -p cbr -e 500 -c 1 -i 2 -a 1 -x {1.0 5.0 1 ------- null}
+ -t 0.35 -s 1 -d 2 -p cbr -e 500 -c 1 -i 7 -a 1 -x {1.0 5.0 5 ------- null}
- -t 0.35 -s 1 -d 2 -p cbr -e 500 -c 1 -i 7 -a 1 -x {1.0 5.0 5 ------- null}
h -t 0.35 -s 1 -d 2 -p cbr -e 500 -c 1 -i 7 -a 1 -x {1.0 5.0 -1 ------- null}
r -t 0.3532 -s 3 -d 2 -p ack -e 40 -c 0 -i 5 -a 0 -x {4.0 0.0 0 ------- null}
+ -t 0.3532 -s 2 -d 0 -p ack -e 40 -c 0 -i 5 -a 0 -x {4.0 0.0 0 ------- null}
- -t 0.3532 -s 2 -d 0 -p ack -e 40 -c 0 -i 5 -a 0 -x {4.0 0.0 0 ------- null}
h -t 0.3532 -s 2 -d 0 -p ack -e 40 -c 0 -i 5 -a 0 -x {4.0 0.0 -1 ------- null}
r -t 0.358 -s 1 -d 2 -p cbr -e 500 -c 1 -i 6 -a 1 -x {1.0 5.0 4 ------- null}
+ -t 0.358 -s 2 -d 3 -p cbr -e 500 -c 1 -i 6 -a 1 -x {1.0 5.0 4 ------- null}
- -t 0.358 -s 2 -d 3 -p cbr -e 500 -c 1 -i 6 -a 1 -x {1.0 5.0 4 ------- null}
h -t 0.358 -s 2 -d 3 -p cbr -e 500 -c 1 -i 6 -a 1 -x {1.0 5.0 -1 ------- null}
r -t 0.366 -s 2 -d 3 -p cbr -e 500 -c 1 -i 4 -a 1 -x {1.0 5.0 3 ------- null}
+ -t 0.366 -s 3 -d 5 -p cbr -e 500 -c 1 -i 4 -a 1 -x {1.0 5.0 3 ------- null}
- -t 0.366 -s 3 -d 5 -p cbr -e 500 -c 1 -i 4 -a 1 -x {1.0 5.0 3 ------- null}
h -t 0.366 -s 3 -d 5 -p cbr -e 500 -c 1 -i 4 -a 1 -x {1.0 5.0 -1 ------- null}
r -t 0.374 -s 3 -d 5 -p cbr -e 500 -c 1 -i 3 -a 1 -x {1.0 5.0 2 ------- null}
+ -t 0.4 -s 1 -d 2 -p cbr -e 500 -c 1 -i 8 -a 1 -x {1.0 5.0 6 ------- null}
- -t 0.4 -s 1 -d 2 -p cbr -e 500 -c 1 -i 8 -a 1 -x {1.0 5.0 6 ------- null}
h -t 0.4 -s 1 -d 2 -p cbr -e 500 -c 1 -i 8 -a 1 -x {1.0 5.0 -1 ------- null}
r -t 0.40384 -s 2 -d 0 -p ack -e 40 -c 0 -i 5 -a 0 -x {4.0 0.0 0 ------- null}
f -t 0.40384 -s 0 -d 4 -n cwnd_ -a tcp -v 2 -T v
f -t 0.40384 -s 0 -d 4 -n cwnd_ -a tcp -v 1 -o 2 -T v
f -t 0.40384 -s 0 -d 4 -n cwnd_ -a tcp -v 2 -o 1 -T v
+ -t 0.40384 -s 0 -d 2 -p tcp -e 1040 -c 0 -i 9 -a 0 -x {0.0 4.0 1 ------- null}
- -t 0.40384 -s 0 -d 2 -p tcp -e 1040 -c 0 -i 9 -a 0 -x {0.0 4.0 1 ------- null}
h -t 0.40384 -s 0 -d 2 -p tcp -e 1040 -c 0 -i 9 -a 0 -x {0.0 4.0 -1 ------- null}
r -t 0.408 -s 1 -d 2 -p cbr -e 500 -c 1 -i 7 -a 1 -x {1.0 5.0 5 ------- null}
+ -t 0.408 -s 2 -d 3 -p cbr -e 500 -c 1 -i 7 -a 1 -x {1.0 5.0 5 ------- null}
- -t 0.408 -s 2 -d 3 -p cbr -e 500 -c 1 -i 7 -a 1 -x {1.0 5.0 5 ------- null}
h -t 0.408 -s 2 -d 3 -p cbr -e 500 -c 1 -i 7 -a 1 -x {1.0 5.0 -1 ------- null}
r -t 0.416 -s 2 -d 3 -p cbr -e 500 -c 1 -i 6 -a 1 -x {1.0 5.0 4 ------- null}
+ -t 0.416 -s 3 -d 5 -p cbr -e 500 -c 1 -i 6 -a 1 -x {1.0 5.0 4 ------- null}
- -t 0.416 -s 3 -d 5 -p cbr -e 500 -c 1 -i 6 -a 1 -x {1.0 5.0 4 ------- null}
h -t 0.416 -s 3 -d 5 -p cbr -e 500 -c 1 -i 6 -a 1 -x {1.0 5.0 -1 ------- null}
r -t 0.424 -s 3 -d 5 -p cbr -e 500 -c 1 -i 4 -a 1 -x {1.0 5.0 3 ------- null}
+ -t 0.45 -s 1 -d 2 -p cbr -e 500 -c 1 -i 10 -a 1 -x {1.0 5.0 7 ------- null}
- -t 0.45 -s 1 -d 2 -p cbr -e 500 -c 1 -i 10 -a 1 -x {1.0 5.0 7 ------- null}
h -t 0.45 -s 1 -d 2 -p cbr -e 500 -c 1 -i 10 -a 1 -x {1.0 5.0 -1 ------- null}
v -t 0.45 -e sim_annotation 0.45 5 Send Packet_1
r -t 0.458 -s 1 -d 2 -p cbr -e 500 -c 1 -i 8 -a 1 -x {1.0 5.0 6 ------- null}
+ -t 0.458 -s 2 -d 3 -p cbr -e 500 -c 1 -i 8 -a 1 -x {1.0 5.0 6 ------- null}
- -t 0.458 -s 2 -d 3 -p cbr -e 500 -c 1 -i 8 -a 1 -x {1.0 5.0 6 ------- null}
h -t 0.458 -s 2 -d 3 -p cbr -e 500 -c 1 -i 8 -a 1 -x {1.0 5.0 -1 ------- null}
r -t 0.466 -s 2 -d 3 -p cbr -e 500 -c 1 -i 7 -a 1 -x {1.0 5.0 5 ------- null}
+ -t 0.466 -s 3 -d 5 -p cbr -e 500 -c 1 -i 7 -a 1 -x {1.0 5.0 5 ------- null}
- -t 0.466 -s 3 -d 5 -p cbr -e 500 -c 1 -i 7 -a 1 -x {1.0 5.0 5 ------- null}
h -t 0.466 -s 3 -d 5 -p cbr -e 500 -c 1 -i 7 -a 1 -x {1.0 5.0 -1 ------- null}
r -t 0.47048 -s 0 -d 2 -p tcp -e 1040 -c 0 -i 9 -a 0 -x {0.0 4.0 1 ------- null}
+ -t 0.47048 -s 2 -d 3 -p tcp -e 1040 -c 0 -i 9 -a 0 -x {0.0 4.0 1 ------- null}
- -t 0.47048 -s 2 -d 3 -p tcp -e 1040 -c 0 -i 9 -a 0 -x {0.0 4.0 1 ------- null}
h -t 0.47048 -s 2 -d 3 -p tcp -e 1040 -c 0 -i 9 -a 0 -x {0.0 4.0 -1 ------- null}
r -t 0.474 -s 3 -d 5 -p cbr -e 500 -c 1 -i 6 -a 1 -x {1.0 5.0 4 ------- null}
+ -t 0.5 -s 1 -d 2 -p cbr -e 500 -c 1 -i 11 -a 1 -x {1.0 5.0 8 ------- null}
- -t 0.5 -s 1 -d 2 -p cbr -e 500 -c 1 -i 11 -a 1 -x {1.0 5.0 8 ------- null}
h -t 0.5 -s 1 -d 2 -p cbr -e 500 -c 1 -i 11 -a 1 -x {1.0 5.0 -1 ------- null}
r -t 0.508 -s 1 -d 2 -p cbr -e 500 -c 1 -i 10 -a 1 -x {1.0 5.0 7 ------- null}
+ -t 0.508 -s 2 -d 3 -p cbr -e 500 -c 1 -i 10 -a 1 -x {1.0 5.0 7 ------- null}
- -t 0.508 -s 2 -d 3 -p cbr -e 500 -c 1 -i 10 -a 1 -x {1.0 5.0 7 ------- null}
h -t 0.508 -s 2 -d 3 -p cbr -e 500 -c 1 -i 10 -a 1 -x {1.0 5.0 -1 ------- null}
r -t 0.516 -s 2 -d 3 -p cbr -e 500 -c 1 -i 8 -a 1 -x {1.0 5.0 6 ------- null}
+ -t 0.516 -s 3 -d 5 -p cbr -e 500 -c 1 -i 8 -a 1 -x {1.0 5.0 6 ------- null}
- -t 0.516 -s 3 -d 5 -p cbr -e 500 -c 1 -i 8 -a 1 -x {1.0 5.0 6 ------- null}
h -t 0.516 -s 3 -d 5 -p cbr -e 500 -c 1 -i 8 -a 1 -x {1.0 5.0 -1 ------- null}
r -t 0.524 -s 3 -d 5 -p cbr -e 500 -c 1 -i 7 -a 1 -x {1.0 5.0 5 ------- null}
r -t 0.53712 -s 2 -d 3 -p tcp -e 1040 -c 0 -i 9 -a 0 -x {0.0 4.0 1 ------- null}
+ -t 0.53712 -s 3 -d 4 -p tcp -e 1040 -c 0 -i 9 -a 0 -x {0.0 4.0 1 ------- null}
- -t 0.53712 -s 3 -d 4 -p tcp -e 1040 -c 0 -i 9 -a 0 -x {0.0 4.0 1 ------- null}
h -t 0.53712 -s 3 -d 4 -p tcp -e 1040 -c 0 -i 9 -a 0 -x {0.0 4.0 -1 ------- null}
+ -t 0.55 -s 1 -d 2 -p cbr -e 500 -c 1 -i 12 -a 1 -x {1.0 5.0 9 ------- null}
- -t 0.55 -s 1 -d 2 -p cbr -e 500 -c 1 -i 12 -a 1 -x {1.0 5.0 9 ------- null}
h -t 0.55 -s 1 -d 2 -p cbr -e 500 -c 1 -i 12 -a 1 -x {1.0 5.0 -1 ------- null}
r -t 0.558 -s 1 -d 2 -p cbr -e 500 -c 1 -i 11 -a 1 -x {1.0 5.0 8 ------- null}
+ -t 0.558 -s 2 -d 3 -p cbr -e 500 -c 1 -i 11 -a 1 -x {1.0 5.0 8 ------- null}
- -t 0.558 -s 2 -d 3 -p cbr -e 500 -c 1 -i 11 -a 1 -x {1.0 5.0 8 ------- null}
h -t 0.558 -s 2 -d 3 -p cbr -e 500 -c 1 -i 11 -a 1 -x {1.0 5.0 -1 ------- null}
r -t 0.566 -s 2 -d 3 -p cbr -e 500 -c 1 -i 10 -a 1 -x {1.0 5.0 7 ------- null}
+ -t 0.566 -s 3 -d 5 -p cbr -e 500 -c 1 -i 10 -a 1 -x {1.0 5.0 7 ------- null}
- -t 0.566 -s 3 -d 5 -p cbr -e 500 -c 1 -i 10 -a 1 -x {1.0 5.0 7 ------- null}
h -t 0.566 -s 3 -d 5 -p cbr -e 500 -c 1 -i 10 -a 1 -x {1.0 5.0 -1 ------- null}
r -t 0.574 -s 3 -d 5 -p cbr -e 500 -c 1 -i 8 -a 1 -x {1.0 5.0 6 ------- null}
+ -t 0.6 -s 1 -d 2 -p cbr -e 500 -c 1 -i 13 -a 1 -x {1.0 5.0 10 ------- null}
- -t 0.6 -s 1 -d 2 -p cbr -e 500 -c 1 -i 13 -a 1 -x {1.0 5.0 10 ------- null}
h -t 0.6 -s 1 -d 2 -p cbr -e 500 -c 1 -i 13 -a 1 -x {1.0 5.0 -1 ------- null}
r -t 0.60376 -s 3 -d 4 -p tcp -e 1040 -c 0 -i 9 -a 0 -x {0.0 4.0 1 ------- null}
+ -t 0.60376 -s 4 -d 3 -p ack -e 40 -c 0 -i 14 -a 0 -x {4.0 0.0 1 ------- null}
- -t 0.60376 -s 4 -d 3 -p ack -e 40 -c 0 -i 14 -a 0 -x {4.0 0.0 1 ------- null}
h -t 0.60376 -s 4 -d 3 -p ack -e 40 -c 0 -i 14 -a 0 -x {4.0 0.0 -1 ------- null}
r -t 0.608 -s 1 -d 2 -p cbr -e 500 -c 1 -i 12 -a 1 -x {1.0 5.0 9 ------- null}
+ -t 0.608 -s 2 -d 3 -p cbr -e 500 -c 1 -i 12 -a 1 -x {1.0 5.0 9 ------- null}
- -t 0.608 -s 2 -d 3 -p cbr -e 500 -c 1 -i 12 -a 1 -x {1.0 5.0 9 ------- null}
h -t 0.608 -s 2 -d 3 -p cbr -e 500 -c 1 -i 12 -a 1 -x {1.0 5.0 -1 ------- null}
r -t 0.616 -s 2 -d 3 -p cbr -e 500 -c 1 -i 11 -a 1 -x {1.0 5.0 8 ------- null}
+ -t 0.616 -s 3 -d 5 -p cbr -e 500 -c 1 -i 11 -a 1 -x {1.0 5.0 8 ------- null}
- -t 0.616 -s 3 -d 5 -p cbr -e 500 -c 1 -i 11 -a 1 -x {1.0 5.0 8 ------- null}
h -t 0.616 -s 3 -d 5 -p cbr -e 500 -c 1 -i 11 -a 1 -x {1.0 5.0 -1 ------- null}
r -t 0.624 -s 3 -d 5 -p cbr -e 500 -c 1 -i 10 -a 1 -x {1.0 5.0 7 ------- null}
v -t 0.65 -e sim_annotation 0.65 6 Receive Ack_1
+ -t 0.65 -s 1 -d 2 -p cbr -e 500 -c 1 -i 15 -a 1 -x {1.0 5.0 11 ------- null}
- -t 0.65 -s 1 -d 2 -p cbr -e 500 -c 1 -i 15 -a 1 -x {1.0 5.0 11 ------- null}
h -t 0.65 -s 1 -d 2 -p cbr -e 500 -c 1 -i 15 -a 1 -x {1.0 5.0 -1 ------- null}
r -t 0.6544 -s 4 -d 3 -p ack -e 40 -c 0 -i 14 -a 0 -x {4.0 0.0 1 ------- null}
+ -t 0.6544 -s 3 -d 2 -p ack -e 40 -c 0 -i 14 -a 0 -x {4.0 0.0 1 ------- null}
- -t 0.6544 -s 3 -d 2 -p ack -e 40 -c 0 -i 14 -a 0 -x {4.0 0.0 1 ------- null}
h -t 0.6544 -s 3 -d 2 -p ack -e 40 -c 0 -i 14 -a 0 -x {4.0 0.0 -1 ------- null}
r -t 0.658 -s 1 -d 2 -p cbr -e 500 -c 1 -i 13 -a 1 -x {1.0 5.0 10 ------- null}
+ -t 0.658 -s 2 -d 3 -p cbr -e 500 -c 1 -i 13 -a 1 -x {1.0 5.0 10 ------- null}
- -t 0.658 -s 2 -d 3 -p cbr -e 500 -c 1 -i 13 -a 1 -x {1.0 5.0 10 ------- null}
h -t 0.658 -s 2 -d 3 -p cbr -e 500 -c 1 -i 13 -a 1 -x {1.0 5.0 -1 ------- null}
r -t 0.666 -s 2 -d 3 -p cbr -e 500 -c 1 -i 12 -a 1 -x {1.0 5.0 9 ------- null}
+ -t 0.666 -s 3 -d 5 -p cbr -e 500 -c 1 -i 12 -a 1 -x {1.0 5.0 9 ------- null}
- -t 0.666 -s 3 -d 5 -p cbr -e 500 -c 1 -i 12 -a 1 -x {1.0 5.0 9 ------- null}
h -t 0.666 -s 3 -d 5 -p cbr -e 500 -c 1 -i 12 -a 1 -x {1.0 5.0 -1 ------- null}
r -t 0.674 -s 3 -d 5 -p cbr -e 500 -c 1 -i 11 -a 1 -x {1.0 5.0 8 ------- null}
+ -t 0.7 -s 1 -d 2 -p cbr -e 500 -c 1 -i 16 -a 1 -x {1.0 5.0 12 ------- null}
- -t 0.7 -s 1 -d 2 -p cbr -e 500 -c 1 -i 16 -a 1 -x {1.0 5.0 12 ------- null}
h -t 0.7 -s 1 -d 2 -p cbr -e 500 -c 1 -i 16 -a 1 -x {1.0 5.0 -1 ------- null}
r -t 0.70504 -s 3 -d 2 -p ack -e 40 -c 0 -i 14 -a 0 -x {4.0 0.0 1 ------- null}
+ -t 0.70504 -s 2 -d 0 -p ack -e 40 -c 0 -i 14 -a 0 -x {4.0 0.0 1 ------- null}
- -t 0.70504 -s 2 -d 0 -p ack -e 40 -c 0 -i 14 -a 0 -x {4.0 0.0 1 ------- null}
h -t 0.70504 -s 2 -d 0 -p ack -e 40 -c 0 -i 14 -a 0 -x {4.0 0.0 -1 ------- null}
r -t 0.708 -s 1 -d 2 -p cbr -e 500 -c 1 -i 15 -a 1 -x {1.0 5.0 11 ------- null}
+ -t 0.708 -s 2 -d 3 -p cbr -e 500 -c 1 -i 15 -a 1 -x {1.0 5.0 11 ------- null}
- -t 0.708 -s 2 -d 3 -p cbr -e 500 -c 1 -i 15 -a 1 -x {1.0 5.0 11 ------- null}
h -t 0.708 -s 2 -d 3 -p cbr -e 500 -c 1 -i 15 -a 1 -x {1.0 5.0 -1 ------- null}
r -t 0.716 -s 2 -d 3 -p cbr -e 500 -c 1 -i 13 -a 1 -x {1.0 5.0 10 ------- null}
+ -t 0.716 -s 3 -d 5 -p cbr -e 500 -c 1 -i 13 -a 1 -x {1.0 5.0 10 ------- null}
- -t 0.716 -s 3 -d 5 -p cbr -e 500 -c 1 -i 13 -a 1 -x {1.0 5.0 10 ------- null}
h -t 0.716 -s 3 -d 5 -p cbr -e 500 -c 1 -i 13 -a 1 -x {1.0 5.0 -1 ------- null}
r -t 0.724 -s 3 -d 5 -p cbr -e 500 -c 1 -i 12 -a 1 -x {1.0 5.0 9 ------- null}
+ -t 0.75 -s 1 -d 2 -p cbr -e 500 -c 1 -i 17 -a 1 -x {1.0 5.0 13 ------- null}
- -t 0.75 -s 1 -d 2 -p cbr -e 500 -c 1 -i 17 -a 1 -x {1.0 5.0 13 ------- null}
h -t 0.75 -s 1 -d 2 -p cbr -e 500 -c 1 -i 17 -a 1 -x {1.0 5.0 -1 ------- null}
r -t 0.75568 -s 2 -d 0 -p ack -e 40 -c 0 -i 14 -a 0 -x {4.0 0.0 1 ------- null}
f -t 0.75568 -s 0 -d 4 -n cwnd_ -a tcp -v 2.5 -o 2 -T v
f -t 0.75568 -s 0 -d 4 -n cwnd_ -a tcp -v 1 -o 2.5 -T v
+ -t 0.75568 -s 0 -d 2 -p tcp -e 1040 -c 0 -i 18 -a 0 -x {0.0 4.0 2 ------- null}
- -t 0.75568 -s 0 -d 2 -p tcp -e 1040 -c 0 -i 18 -a 0 -x {0.0 4.0 2 ------- null}
h -t 0.75568 -s 0 -d 2 -p tcp -e 1040 -c 0 -i 18 -a 0 -x {0.0 4.0 -1 ------- null}
r -t 0.758 -s 1 -d 2 -p cbr -e 500 -c 1 -i 16 -a 1 -x {1.0 5.0 12 ------- null}
+ -t 0.758 -s 2 -d 3 -p cbr -e 500 -c 1 -i 16 -a 1 -x {1.0 5.0 12 ------- null}
- -t 0.758 -s 2 -d 3 -p cbr -e 500 -c 1 -i 16 -a 1 -x {1.0 5.0 12 ------- null}
h -t 0.758 -s 2 -d 3 -p cbr -e 500 -c 1 -i 16 -a 1 -x {1.0 5.0 -1 ------- null}
r -t 0.766 -s 2 -d 3 -p cbr -e 500 -c 1 -i 15 -a 1 -x {1.0 5.0 11 ------- null}
+ -t 0.766 -s 3 -d 5 -p cbr -e 500 -c 1 -i 15 -a 1 -x {1.0 5.0 11 ------- null}
- -t 0.766 -s 3 -d 5 -p cbr -e 500 -c 1 -i 15 -a 1 -x {1.0 5.0 11 ------- null}
h -t 0.766 -s 3 -d 5 -p cbr -e 500 -c 1 -i 15 -a 1 -x {1.0 5.0 -1 ------- null}
r -t 0.774 -s 3 -d 5 -p cbr -e 500 -c 1 -i 13 -a 1 -x {1.0 5.0 10 ------- null}
v -t 0.8 -e sim_annotation 0.8 7 Send Packet_2
+ -t 0.8 -s 1 -d 2 -p cbr -e 500 -c 1 -i 19 -a 1 -x {1.0 5.0 14 ------- null}
- -t 0.8 -s 1 -d 2 -p cbr -e 500 -c 1 -i 19 -a 1 -x {1.0 5.0 14 ------- null}
h -t 0.8 -s 1 -d 2 -p cbr -e 500 -c 1 -i 19 -a 1 -x {1.0 5.0 -1 ------- null}
r -t 0.808 -s 1 -d 2 -p cbr -e 500 -c 1 -i 17 -a 1 -x {1.0 5.0 13 ------- null}
+ -t 0.808 -s 2 -d 3 -p cbr -e 500 -c 1 -i 17 -a 1 -x {1.0 5.0 13 ------- null}
- -t 0.808 -s 2 -d 3 -p cbr -e 500 -c 1 -i 17 -a 1 -x {1.0 5.0 13 ------- null}
h -t 0.808 -s 2 -d 3 -p cbr -e 500 -c 1 -i 17 -a 1 -x {1.0 5.0 -1 ------- null}
r -t 0.816 -s 2 -d 3 -p cbr -e 500 -c 1 -i 16 -a 1 -x {1.0 5.0 12 ------- null}
+ -t 0.816 -s 3 -d 5 -p cbr -e 500 -c 1 -i 16 -a 1 -x {1.0 5.0 12 ------- null}
- -t 0.816 -s 3 -d 5 -p cbr -e 500 -c 1 -i 16 -a 1 -x {1.0 5.0 12 ------- null}
h -t 0.816 -s 3 -d 5 -p cbr -e 500 -c 1 -i 16 -a 1 -x {1.0 5.0 -1 ------- null}
r -t 0.82232 -s 0 -d 2 -p tcp -e 1040 -c 0 -i 18 -a 0 -x {0.0 4.0 2 ------- null}
+ -t 0.82232 -s 2 -d 3 -p tcp -e 1040 -c 0 -i 18 -a 0 -x {0.0 4.0 2 ------- null}
- -t 0.82232 -s 2 -d 3 -p tcp -e 1040 -c 0 -i 18 -a 0 -x {0.0 4.0 2 ------- null}
h -t 0.82232 -s 2 -d 3 -p tcp -e 1040 -c 0 -i 18 -a 0 -x {0.0 4.0 -1 ------- null}
r -t 0.824 -s 3 -d 5 -p cbr -e 500 -c 1 -i 15 -a 1 -x {1.0 5.0 11 ------- null}
+ -t 0.85 -s 1 -d 2 -p cbr -e 500 -c 1 -i 20 -a 1 -x {1.0 5.0 15 ------- null}
- -t 0.85 -s 1 -d 2 -p cbr -e 500 -c 1 -i 20 -a 1 -x {1.0 5.0 15 ------- null}
h -t 0.85 -s 1 -d 2 -p cbr -e 500 -c 1 -i 20 -a 1 -x {1.0 5.0 -1 ------- null}
r -t 0.858 -s 1 -d 2 -p cbr -e 500 -c 1 -i 19 -a 1 -x {1.0 5.0 14 ------- null}
+ -t 0.858 -s 2 -d 3 -p cbr -e 500 -c 1 -i 19 -a 1 -x {1.0 5.0 14 ------- null}
- -t 0.858 -s 2 -d 3 -p cbr -e 500 -c 1 -i 19 -a 1 -x {1.0 5.0 14 ------- null}
h -t 0.858 -s 2 -d 3 -p cbr -e 500 -c 1 -i 19 -a 1 -x {1.0 5.0 -1 ------- null}
r -t 0.866 -s 2 -d 3 -p cbr -e 500 -c 1 -i 17 -a 1 -x {1.0 5.0 13 ------- null}
+ -t 0.866 -s 3 -d 5 -p cbr -e 500 -c 1 -i 17 -a 1 -x {1.0 5.0 13 ------- null}
- -t 0.866 -s 3 -d 5 -p cbr -e 500 -c 1 -i 17 -a 1 -x {1.0 5.0 13 ------- null}
h -t 0.866 -s 3 -d 5 -p cbr -e 500 -c 1 -i 17 -a 1 -x {1.0 5.0 -1 ------- null}
r -t 0.874 -s 3 -d 5 -p cbr -e 500 -c 1 -i 16 -a 1 -x {1.0 5.0 12 ------- null}
r -t 0.88896 -s 2 -d 3 -p tcp -e 1040 -c 0 -i 18 -a 0 -x {0.0 4.0 2 ------- null}
+ -t 0.88896 -s 3 -d 4 -p tcp -e 1040 -c 0 -i 18 -a 0 -x {0.0 4.0 2 ------- null}
- -t 0.88896 -s 3 -d 4 -p tcp -e 1040 -c 0 -i 18 -a 0 -x {0.0 4.0 2 ------- null}
h -t 0.88896 -s 3 -d 4 -p tcp -e 1040 -c 0 -i 18 -a 0 -x {0.0 4.0 -1 ------- null}
+ -t 0.9 -s 1 -d 2 -p cbr -e 500 -c 1 -i 21 -a 1 -x {1.0 5.0 16 ------- null}
- -t 0.9 -s 1 -d 2 -p cbr -e 500 -c 1 -i 21 -a 1 -x {1.0 5.0 16 ------- null}
h -t 0.9 -s 1 -d 2 -p cbr -e 500 -c 1 -i 21 -a 1 -x {1.0 5.0 -1 ------- null}
r -t 0.908 -s 1 -d 2 -p cbr -e 500 -c 1 -i 20 -a 1 -x {1.0 5.0 15 ------- null}
+ -t 0.908 -s 2 -d 3 -p cbr -e 500 -c 1 -i 20 -a 1 -x {1.0 5.0 15 ------- null}
- -t 0.908 -s 2 -d 3 -p cbr -e 500 -c 1 -i 20 -a 1 -x {1.0 5.0 15 ------- null}
h -t 0.908 -s 2 -d 3 -p cbr -e 500 -c 1 -i 20 -a 1 -x {1.0 5.0 -1 ------- null}
r -t 0.916 -s 2 -d 3 -p cbr -e 500 -c 1 -i 19 -a 1 -x {1.0 5.0 14 ------- null}
+ -t 0.916 -s 3 -d 5 -p cbr -e 500 -c 1 -i 19 -a 1 -x {1.0 5.0 14 ------- null}
- -t 0.916 -s 3 -d 5 -p cbr -e 500 -c 1 -i 19 -a 1 -x {1.0 5.0 14 ------- null}
h -t 0.916 -s 3 -d 5 -p cbr -e 500 -c 1 -i 19 -a 1 -x {1.0 5.0 -1 ------- null}
r -t 0.924 -s 3 -d 5 -p cbr -e 500 -c 1 -i 17 -a 1 -x {1.0 5.0 13 ------- null}
+ -t 0.95 -s 1 -d 2 -p cbr -e 500 -c 1 -i 22 -a 1 -x {1.0 5.0 17 ------- null}
- -t 0.95 -s 1 -d 2 -p cbr -e 500 -c 1 -i 22 -a 1 -x {1.0 5.0 17 ------- null}
h -t 0.95 -s 1 -d 2 -p cbr -e 500 -c 1 -i 22 -a 1 -x {1.0 5.0 -1 ------- null}
r -t 0.9556 -s 3 -d 4 -p tcp -e 1040 -c 0 -i 18 -a 0 -x {0.0 4.0 2 ------- null}
+ -t 0.9556 -s 4 -d 3 -p ack -e 40 -c 0 -i 23 -a 0 -x {4.0 0.0 2 ------- null}
- -t 0.9556 -s 4 -d 3 -p ack -e 40 -c 0 -i 23 -a 0 -x {4.0 0.0 2 ------- null}
h -t 0.9556 -s 4 -d 3 -p ack -e 40 -c 0 -i 23 -a 0 -x {4.0 0.0 -1 ------- null}
r -t 0.958 -s 1 -d 2 -p cbr -e 500 -c 1 -i 21 -a 1 -x {1.0 5.0 16 ------- null}
+ -t 0.958 -s 2 -d 3 -p cbr -e 500 -c 1 -i 21 -a 1 -x {1.0 5.0 16 ------- null}
- -t 0.958 -s 2 -d 3 -p cbr -e 500 -c 1 -i 21 -a 1 -x {1.0 5.0 16 ------- null}
h -t 0.958 -s 2 -d 3 -p cbr -e 500 -c 1 -i 21 -a 1 -x {1.0 5.0 -1 ------- null}
r -t 0.966 -s 2 -d 3 -p cbr -e 500 -c 1 -i 20 -a 1 -x {1.0 5.0 15 ------- null}
+ -t 0.966 -s 3 -d 5 -p cbr -e 500 -c 1 -i 20 -a 1 -x {1.0 5.0 15 ------- null}
- -t 0.966 -s 3 -d 5 -p cbr -e 500 -c 1 -i 20 -a 1 -x {1.0 5.0 15 ------- null}
h -t 0.966 -s 3 -d 5 -p cbr -e 500 -c 1 -i 20 -a 1 -x {1.0 5.0 -1 ------- null}
r -t 0.974 -s 3 -d 5 -p cbr -e 500 -c 1 -i 19 -a 1 -x {1.0 5.0 14 ------- null}
v -t 1 -e sim_annotation 1 8 Receive Ack_2
+ -t 1 -s 1 -d 2 -p cbr -e 500 -c 1 -i 24 -a 1 -x {1.0 5.0 18 ------- null}
- -t 1 -s 1 -d 2 -p cbr -e 500 -c 1 -i 24 -a 1 -x {1.0 5.0 18 ------- null}
h -t 1 -s 1 -d 2 -p cbr -e 500 -c 1 -i 24 -a 1 -x {1.0 5.0 -1 ------- null}
r -t 1.00624 -s 4 -d 3 -p ack -e 40 -c 0 -i 23 -a 0 -x {4.0 0.0 2 ------- null}
+ -t 1.00624 -s 3 -d 2 -p ack -e 40 -c 0 -i 23 -a 0 -x {4.0 0.0 2 ------- null}
- -t 1.00624 -s 3 -d 2 -p ack -e 40 -c 0 -i 23 -a 0 -x {4.0 0.0 2 ------- null}
h -t 1.00624 -s 3 -d 2 -p ack -e 40 -c 0 -i 23 -a 0 -x {4.0 0.0 -1 ------- null}
r -t 1.008 -s 1 -d 2 -p cbr -e 500 -c 1 -i 22 -a 1 -x {1.0 5.0 17 ------- null}
+ -t 1.008 -s 2 -d 3 -p cbr -e 500 -c 1 -i 22 -a 1 -x {1.0 5.0 17 ------- null}
- -t 1.008 -s 2 -d 3 -p cbr -e 500 -c 1 -i 22 -a 1 -x {1.0 5.0 17 ------- null}
h -t 1.008 -s 2 -d 3 -p cbr -e 500 -c 1 -i 22 -a 1 -x {1.0 5.0 -1 ------- null}
r -t 1.016 -s 2 -d 3 -p cbr -e 500 -c 1 -i 21 -a 1 -x {1.0 5.0 16 ------- null}
+ -t 1.016 -s 3 -d 5 -p cbr -e 500 -c 1 -i 21 -a 1 -x {1.0 5.0 16 ------- null}
- -t 1.016 -s 3 -d 5 -p cbr -e 500 -c 1 -i 21 -a 1 -x {1.0 5.0 16 ------- null}
h -t 1.016 -s 3 -d 5 -p cbr -e 500 -c 1 -i 21 -a 1 -x {1.0 5.0 -1 ------- null}
r -t 1.024 -s 3 -d 5 -p cbr -e 500 -c 1 -i 20 -a 1 -x {1.0 5.0 15 ------- null}
+ -t 1.05 -s 1 -d 2 -p cbr -e 500 -c 1 -i 25 -a 1 -x {1.0 5.0 19 ------- null}
- -t 1.05 -s 1 -d 2 -p cbr -e 500 -c 1 -i 25 -a 1 -x {1.0 5.0 19 ------- null}
h -t 1.05 -s 1 -d 2 -p cbr -e 500 -c 1 -i 25 -a 1 -x {1.0 5.0 -1 ------- null}
r -t 1.05688 -s 3 -d 2 -p ack -e 40 -c 0 -i 23 -a 0 -x {4.0 0.0 2 ------- null}
+ -t 1.05688 -s 2 -d 0 -p ack -e 40 -c 0 -i 23 -a 0 -x {4.0 0.0 2 ------- null}
- -t 1.05688 -s 2 -d 0 -p ack -e 40 -c 0 -i 23 -a 0 -x {4.0 0.0 2 ------- null}
h -t 1.05688 -s 2 -d 0 -p ack -e 40 -c 0 -i 23 -a 0 -x {4.0 0.0 -1 ------- null}
r -t 1.058 -s 1 -d 2 -p cbr -e 500 -c 1 -i 24 -a 1 -x {1.0 5.0 18 ------- null}
+ -t 1.058 -s 2 -d 3 -p cbr -e 500 -c 1 -i 24 -a 1 -x {1.0 5.0 18 ------- null}
- -t 1.058 -s 2 -d 3 -p cbr -e 500 -c 1 -i 24 -a 1 -x {1.0 5.0 18 ------- null}
h -t 1.058 -s 2 -d 3 -p cbr -e 500 -c 1 -i 24 -a 1 -x {1.0 5.0 -1 ------- null}
r -t 1.066 -s 2 -d 3 -p cbr -e 500 -c 1 -i 22 -a 1 -x {1.0 5.0 17 ------- null}
+ -t 1.066 -s 3 -d 5 -p cbr -e 500 -c 1 -i 22 -a 1 -x {1.0 5.0 17 ------- null}
- -t 1.066 -s 3 -d 5 -p cbr -e 500 -c 1 -i 22 -a 1 -x {1.0 5.0 17 ------- null}
h -t 1.066 -s 3 -d 5 -p cbr -e 500 -c 1 -i 22 -a 1 -x {1.0 5.0 -1 ------- null}
r -t 1.074 -s 3 -d 5 -p cbr -e 500 -c 1 -i 21 -a 1 -x {1.0 5.0 16 ------- null}
+ -t 1.1 -s 1 -d 2 -p cbr -e 500 -c 1 -i 26 -a 1 -x {1.0 5.0 20 ------- null}
- -t 1.1 -s 1 -d 2 -p cbr -e 500 -c 1 -i 26 -a 1 -x {1.0 5.0 20 ------- null}
h -t 1.1 -s 1 -d 2 -p cbr -e 500 -c 1 -i 26 -a 1 -x {1.0 5.0 -1 ------- null}
r -t 1.10752 -s 2 -d 0 -p ack -e 40 -c 0 -i 23 -a 0 -x {4.0 0.0 2 ------- null}
f -t 1.10752 -s 0 -d 4 -n cwnd_ -a tcp -v 2 -o 1 -T v
f -t 1.10752 -s 0 -d 4 -n cwnd_ -a tcp -v 1 -o 2 -T v
+ -t 1.10752 -s 0 -d 2 -p tcp -e 1040 -c 0 -i 27 -a 0 -x {0.0 4.0 3 ------- null}
- -t 1.10752 -s 0 -d 2 -p tcp -e 1040 -c 0 -i 27 -a 0 -x {0.0 4.0 3 ------- null}
h -t 1.10752 -s 0 -d 2 -p tcp -e 1040 -c 0 -i 27 -a 0 -x {0.0 4.0 -1 ------- null}
r -t 1.108 -s 1 -d 2 -p cbr -e 500 -c 1 -i 25 -a 1 -x {1.0 5.0 19 ------- null}
+ -t 1.108 -s 2 -d 3 -p cbr -e 500 -c 1 -i 25 -a 1 -x {1.0 5.0 19 ------- null}
- -t 1.108 -s 2 -d 3 -p cbr -e 500 -c 1 -i 25 -a 1 -x {1.0 5.0 19 ------- null}
h -t 1.108 -s 2 -d 3 -p cbr -e 500 -c 1 -i 25 -a 1 -x {1.0 5.0 -1 ------- null}
r -t 1.116 -s 2 -d 3 -p cbr -e 500 -c 1 -i 24 -a 1 -x {1.0 5.0 18 ------- null}
+ -t 1.116 -s 3 -d 5 -p cbr -e 500 -c 1 -i 24 -a 1 -x {1.0 5.0 18 ------- null}
- -t 1.116 -s 3 -d 5 -p cbr -e 500 -c 1 -i 24 -a 1 -x {1.0 5.0 18 ------- null}
h -t 1.116 -s 3 -d 5 -p cbr -e 500 -c 1 -i 24 -a 1 -x {1.0 5.0 -1 ------- null}
r -t 1.124 -s 3 -d 5 -p cbr -e 500 -c 1 -i 22 -a 1 -x {1.0 5.0 17 ------- null}
v -t 1.15 -e sim_annotation 1.15 9 Send Packet_3
+ -t 1.15 -s 1 -d 2 -p cbr -e 500 -c 1 -i 28 -a 1 -x {1.0 5.0 21 ------- null}
- -t 1.15 -s 1 -d 2 -p cbr -e 500 -c 1 -i 28 -a 1 -x {1.0 5.0 21 ------- null}
h -t 1.15 -s 1 -d 2 -p cbr -e 500 -c 1 -i 28 -a 1 -x {1.0 5.0 -1 ------- null}
r -t 1.158 -s 1 -d 2 -p cbr -e 500 -c 1 -i 26 -a 1 -x {1.0 5.0 20 ------- null}
+ -t 1.158 -s 2 -d 3 -p cbr -e 500 -c 1 -i 26 -a 1 -x {1.0 5.0 20 ------- null}
- -t 1.158 -s 2 -d 3 -p cbr -e 500 -c 1 -i 26 -a 1 -x {1.0 5.0 20 ------- null}
h -t 1.158 -s 2 -d 3 -p cbr -e 500 -c 1 -i 26 -a 1 -x {1.0 5.0 -1 ------- null}
r -t 1.166 -s 2 -d 3 -p cbr -e 500 -c 1 -i 25 -a 1 -x {1.0 5.0 19 ------- null}
+ -t 1.166 -s 3 -d 5 -p cbr -e 500 -c 1 -i 25 -a 1 -x {1.0 5.0 19 ------- null}
- -t 1.166 -s 3 -d 5 -p cbr -e 500 -c 1 -i 25 -a 1 -x {1.0 5.0 19 ------- null}
h -t 1.166 -s 3 -d 5 -p cbr -e 500 -c 1 -i 25 -a 1 -x {1.0 5.0 -1 ------- null}
r -t 1.174 -s 3 -d 5 -p cbr -e 500 -c 1 -i 24 -a 1 -x {1.0 5.0 18 ------- null}
r -t 1.17416 -s 0 -d 2 -p tcp -e 1040 -c 0 -i 27 -a 0 -x {0.0 4.0 3 ------- null}
+ -t 1.17416 -s 2 -d 3 -p tcp -e 1040 -c 0 -i 27 -a 0 -x {0.0 4.0 3 ------- null}
- -t 1.17416 -s 2 -d 3 -p tcp -e 1040 -c 0 -i 27 -a 0 -x {0.0 4.0 3 ------- null}
h -t 1.17416 -s 2 -d 3 -p tcp -e 1040 -c 0 -i 27 -a 0 -x {0.0 4.0 -1 ------- null}
+ -t 1.2 -s 1 -d 2 -p cbr -e 500 -c 1 -i 29 -a 1 -x {1.0 5.0 22 ------- null}
- -t 1.2 -s 1 -d 2 -p cbr -e 500 -c 1 -i 29 -a 1 -x {1.0 5.0 22 ------- null}
h -t 1.2 -s 1 -d 2 -p cbr -e 500 -c 1 -i 29 -a 1 -x {1.0 5.0 -1 ------- null}
r -t 1.208 -s 1 -d 2 -p cbr -e 500 -c 1 -i 28 -a 1 -x {1.0 5.0 21 ------- null}
+ -t 1.208 -s 2 -d 3 -p cbr -e 500 -c 1 -i 28 -a 1 -x {1.0 5.0 21 ------- null}
- -t 1.208 -s 2 -d 3 -p cbr -e 500 -c 1 -i 28 -a 1 -x {1.0 5.0 21 ------- null}
h -t 1.208 -s 2 -d 3 -p cbr -e 500 -c 1 -i 28 -a 1 -x {1.0 5.0 -1 ------- null}
r -t 1.216 -s 2 -d 3 -p cbr -e 500 -c 1 -i 26 -a 1 -x {1.0 5.0 20 ------- null}
+ -t 1.216 -s 3 -d 5 -p cbr -e 500 -c 1 -i 26 -a 1 -x {1.0 5.0 20 ------- null}
- -t 1.216 -s 3 -d 5 -p cbr -e 500 -c 1 -i 26 -a 1 -x {1.0 5.0 20 ------- null}
h -t 1.216 -s 3 -d 5 -p cbr -e 500 -c 1 -i 26 -a 1 -x {1.0 5.0 -1 ------- null}
r -t 1.224 -s 3 -d 5 -p cbr -e 500 -c 1 -i 25 -a 1 -x {1.0 5.0 19 ------- null}
r -t 1.2408 -s 2 -d 3 -p tcp -e 1040 -c 0 -i 27 -a 0 -x {0.0 4.0 3 ------- null}
+ -t 1.2408 -s 3 -d 4 -p tcp -e 1040 -c 0 -i 27 -a 0 -x {0.0 4.0 3 ------- null}
- -t 1.2408 -s 3 -d 4 -p tcp -e 1040 -c 0 -i 27 -a 0 -x {0.0 4.0 3 ------- null}
h -t 1.2408 -s 3 -d 4 -p tcp -e 1040 -c 0 -i 27 -a 0 -x {0.0 4.0 -1 ------- null}
+ -t 1.25 -s 1 -d 2 -p cbr -e 500 -c 1 -i 30 -a 1 -x {1.0 5.0 23 ------- null}
- -t 1.25 -s 1 -d 2 -p cbr -e 500 -c 1 -i 30 -a 1 -x {1.0 5.0 23 ------- null}
h -t 1.25 -s 1 -d 2 -p cbr -e 500 -c 1 -i 30 -a 1 -x {1.0 5.0 -1 ------- null}
r -t 1.258 -s 1 -d 2 -p cbr -e 500 -c 1 -i 29 -a 1 -x {1.0 5.0 22 ------- null}
+ -t 1.258 -s 2 -d 3 -p cbr -e 500 -c 1 -i 29 -a 1 -x {1.0 5.0 22 ------- null}
- -t 1.258 -s 2 -d 3 -p cbr -e 500 -c 1 -i 29 -a 1 -x {1.0 5.0 22 ------- null}
h -t 1.258 -s 2 -d 3 -p cbr -e 500 -c 1 -i 29 -a 1 -x {1.0 5.0 -1 ------- null}
r -t 1.266 -s 2 -d 3 -p cbr -e 500 -c 1 -i 28 -a 1 -x {1.0 5.0 21 ------- null}
+ -t 1.266 -s 3 -d 5 -p cbr -e 500 -c 1 -i 28 -a 1 -x {1.0 5.0 21 ------- null}
- -t 1.266 -s 3 -d 5 -p cbr -e 500 -c 1 -i 28 -a 1 -x {1.0 5.0 21 ------- null}