+ 0.5 4 0 tcp 40 ------- 4 4.0 0.1 0 0
- 0.5 4 0 tcp 40 ------- 4 4.0 0.1 0 0
r 0.51532 4 0 tcp 40 ------- 4 4.0 0.1 0 0
+ 0.51532 0 4 ack 40 ------- 4 0.1 4.0 0 1
- 0.51532 0 4 ack 40 ------- 4 0.1 4.0 0 1
r 0.53064 0 4 ack 40 ------- 4 0.1 4.0 0 1
+ 0.53064 4 0 tcp 1040 ------- 4 4.0 0.1 1 2
- 0.53064 4 0 tcp 1040 ------- 4 4.0 0.1 1 2
+ 0.53064 4 0 tcp 1040 ------- 4 4.0 0.1 2 3
- 0.53896 4 0 tcp 1040 ------- 4 4.0 0.1 2 3
r 0.55396 4 0 tcp 1040 ------- 4 4.0 0.1 1 2
+ 0.55396 0 4 ack 40 ------- 4 0.1 4.0 1 4
- 0.55396 0 4 ack 40 ------- 4 0.1 4.0 1 4
r 0.56228 4 0 tcp 1040 ------- 4 4.0 0.1 2 3
+ 0.56228 0 4 ack 40 ------- 4 0.1 4.0 2 5
- 0.56228 0 4 ack 40 ------- 4 0.1 4.0 2 5
r 0.56928 0 4 ack 40 ------- 4 0.1 4.0 1 4
+ 0.56928 4 0 tcp 1040 ------- 4 4.0 0.1 3 6
- 0.56928 4 0 tcp 1040 ------- 4 4.0 0.1 3 6
+ 0.56928 4 0 tcp 1040 ------- 4 4.0 0.1 4 7
r 0.5776 0 4 ack 40 ------- 4 0.1 4.0 2 5
+ 0.5776 4 0 tcp 1040 ------- 4 4.0 0.1 5 8
+ 0.5776 4 0 tcp 1040 ------- 4 4.0 0.1 6 9
- 0.5776 4 0 tcp 1040 ------- 4 4.0 0.1 4 7
- 0.58592 4 0 tcp 1040 ------- 4 4.0 0.1 5 8
r 0.5926 4 0 tcp 1040 ------- 4 4.0 0.1 3 6
+ 0.5926 0 4 ack 40 ------- 4 0.1 4.0 3 10
- 0.5926 0 4 ack 40 ------- 4 0.1 4.0 3 10
- 0.59424 4 0 tcp 1040 ------- 4 4.0 0.1 6 9
r 0.60092 4 0 tcp 1040 ------- 4 4.0 0.1 4 7
+ 0.60092 0 4 ack 40 ------- 4 0.1 4.0 4 11
- 0.60092 0 4 ack 40 ------- 4 0.1 4.0 4 11
r 0.60792 0 4 ack 40 ------- 4 0.1 4.0 3 10
+ 0.60792 4 0 tcp 1040 ------- 4 4.0 0.1 7 12
- 0.60792 4 0 tcp 1040 ------- 4 4.0 0.1 7 12
+ 0.60792 4 0 tcp 1040 ------- 4 4.0 0.1 8 13
r 0.60924 4 0 tcp 1040 ------- 4 4.0 0.1 5 8
+ 0.60924 0 4 ack 40 ------- 4 0.1 4.0 5 14
- 0.60924 0 4 ack 40 ------- 4 0.1 4.0 5 14
r 0.61624 0 4 ack 40 ------- 4 0.1 4.0 4 11
+ 0.61624 4 0 tcp 1040 ------- 4 4.0 0.1 9 15
+ 0.61624 4 0 tcp 1040 ------- 4 4.0 0.1 10 16
- 0.61624 4 0 tcp 1040 ------- 4 4.0 0.1 8 13
r 0.61756 4 0 tcp 1040 ------- 4 4.0 0.1 6 9
+ 0.61756 0 4 ack 40 ------- 4 0.1 4.0 6 17
- 0.61756 0 4 ack 40 ------- 4 0.1 4.0 6 17
r 0.62456 0 4 ack 40 ------- 4 0.1 4.0 5 14
+ 0.62456 4 0 tcp 1040 ------- 4 4.0 0.1 11 18
+ 0.62456 4 0 tcp 1040 ------- 4 4.0 0.1 12 19
- 0.62456 4 0 tcp 1040 ------- 4 4.0 0.1 9 15
r 0.63124 4 0 tcp 1040 ------- 4 4.0 0.1 7 12
+ 0.63124 0 4 ack 40 ------- 4 0.1 4.0 7 20
- 0.63124 0 4 ack 40 ------- 4 0.1 4.0 7 20
r 0.63288 0 4 ack 40 ------- 4 0.1 4.0 6 17
+ 0.63288 4 0 tcp 1040 ------- 4 4.0 0.1 13 21
+ 0.63288 4 0 tcp 1040 ------- 4 4.0 0.1 14 22
- 0.63288 4 0 tcp 1040 ------- 4 4.0 0.1 10 16
r 0.63956 4 0 tcp 1040 ------- 4 4.0 0.1 8 13
+ 0.63956 0 4 ack 40 ------- 4 0.1 4.0 8 23
- 0.63956 0 4 ack 40 ------- 4 0.1 4.0 8 23
- 0.6412 4 0 tcp 1040 ------- 4 4.0 0.1 11 18
r 0.64656 0 4 ack 40 ------- 4 0.1 4.0 7 20
+ 0.64656 4 0 tcp 1040 ------- 4 4.0 0.1 15 24
+ 0.64656 4 0 tcp 1040 ------- 4 4.0 0.1 16 25
r 0.64788 4 0 tcp 1040 ------- 4 4.0 0.1 9 15
+ 0.64788 0 4 ack 40 ------- 4 0.1 4.0 9 26
- 0.64788 0 4 ack 40 ------- 4 0.1 4.0 9 26
- 0.64952 4 0 tcp 1040 ------- 4 4.0 0.1 12 19
r 0.65488 0 4 ack 40 ------- 4 0.1 4.0 8 23
+ 0.65488 4 0 tcp 1040 ------- 4 4.0 0.1 17 27
+ 0.65488 4 0 tcp 1040 ------- 4 4.0 0.1 18 28
r 0.6562 4 0 tcp 1040 ------- 4 4.0 0.1 10 16
+ 0.6562 0 4 ack 40 ------- 4 0.1 4.0 10 29
- 0.6562 0 4 ack 40 ------- 4 0.1 4.0 10 29
- 0.65784 4 0 tcp 1040 ------- 4 4.0 0.1 13 21
r 0.6632 0 4 ack 40 ------- 4 0.1 4.0 9 26
+ 0.6632 4 0 tcp 1040 ------- 4 4.0 0.1 19 30
+ 0.6632 4 0 tcp 1040 ------- 4 4.0 0.1 20 31
r 0.66452 4 0 tcp 1040 ------- 4 4.0 0.1 11 18
+ 0.66452 0 4 ack 40 ------- 4 0.1 4.0 11 32
- 0.66452 0 4 ack 40 ------- 4 0.1 4.0 11 32
- 0.66616 4 0 tcp 1040 ------- 4 4.0 0.1 14 22
r 0.67152 0 4 ack 40 ------- 4 0.1 4.0 10 29
+ 0.67152 4 0 tcp 1040 ------- 4 4.0 0.1 21 33
+ 0.67152 4 0 tcp 1040 ------- 4 4.0 0.1 22 34
r 0.67284 4 0 tcp 1040 ------- 4 4.0 0.1 12 19
+ 0.67284 0 4 ack 40 ------- 4 0.1 4.0 12 35
- 0.67284 0 4 ack 40 ------- 4 0.1 4.0 12 35
- 0.67448 4 0 tcp 1040 ------- 4 4.0 0.1 15 24
r 0.67984 0 4 ack 40 ------- 4 0.1 4.0 11 32
+ 0.67984 4 0 tcp 1040 ------- 4 4.0 0.1 23 36
+ 0.67984 4 0 tcp 1040 ------- 4 4.0 0.1 24 37
r 0.68116 4 0 tcp 1040 ------- 4 4.0 0.1 13 21
+ 0.68116 0 4 ack 40 ------- 4 0.1 4.0 13 38
- 0.68116 0 4 ack 40 ------- 4 0.1 4.0 13 38
- 0.6828 4 0 tcp 1040 ------- 4 4.0 0.1 16 25
r 0.68816 0 4 ack 40 ------- 4 0.1 4.0 12 35
+ 0.68816 4 0 tcp 1040 ------- 4 4.0 0.1 25 39
+ 0.68816 4 0 tcp 1040 ------- 4 4.0 0.1 26 40
r 0.68948 4 0 tcp 1040 ------- 4 4.0 0.1 14 22
+ 0.68948 0 4 ack 40 ------- 4 0.1 4.0 14 41
- 0.68948 0 4 ack 40 ------- 4 0.1 4.0 14 41
- 0.69112 4 0 tcp 1040 ------- 4 4.0 0.1 17 27
r 0.69648 0 4 ack 40 ------- 4 0.1 4.0 13 38
+ 0.69648 4 0 tcp 1040 ------- 4 4.0 0.1 27 42
+ 0.69648 4 0 tcp 1040 ------- 4 4.0 0.1 28 43
r 0.6978 4 0 tcp 1040 ------- 4 4.0 0.1 15 24
+ 0.6978 0 4 ack 40 ------- 4 0.1 4.0 15 44
- 0.6978 0 4 ack 40 ------- 4 0.1 4.0 15 44
- 0.69944 4 0 tcp 1040 ------- 4 4.0 0.1 18 28
r 0.7048 0 4 ack 40 ------- 4 0.1 4.0 14 41
+ 0.7048 4 0 tcp 1040 ------- 4 4.0 0.1 29 45
+ 0.7048 4 0 tcp 1040 ------- 4 4.0 0.1 30 46
r 0.70612 4 0 tcp 1040 ------- 4 4.0 0.1 16 25
+ 0.70612 0 4 ack 40 ------- 4 0.1 4.0 16 47
- 0.70612 0 4 ack 40 ------- 4 0.1 4.0 16 47
- 0.70776 4 0 tcp 1040 ------- 4 4.0 0.1 19 30
r 0.71312 0 4 ack 40 ------- 4 0.1 4.0 15 44
+ 0.71312 4 0 tcp 1040 ------- 4 4.0 0.1 31 48
+ 0.71312 4 0 tcp 1040 ------- 4 4.0 0.1 32 49
r 0.71444 4 0 tcp 1040 ------- 4 4.0 0.1 17 27
+ 0.71444 0 4 ack 40 ------- 4 0.1 4.0 17 50
- 0.71444 0 4 ack 40 ------- 4 0.1 4.0 17 50
- 0.71608 4 0 tcp 1040 ------- 4 4.0 0.1 20 31
r 0.72144 0 4 ack 40 ------- 4 0.1 4.0 16 47
+ 0.72144 4 0 tcp 1040 ------- 4 4.0 0.1 33 51
+ 0.72144 4 0 tcp 1040 ------- 4 4.0 0.1 34 52
r 0.72276 4 0 tcp 1040 ------- 4 4.0 0.1 18 28
+ 0.72276 0 4 ack 40 ------- 4 0.1 4.0 18 53
- 0.72276 0 4 ack 40 ------- 4 0.1 4.0 18 53
- 0.7244 4 0 tcp 1040 ------- 4 4.0 0.1 21 33
r 0.72976 0 4 ack 40 ------- 4 0.1 4.0 17 50
+ 0.72976 4 0 tcp 1040 ------- 4 4.0 0.1 35 54
+ 0.72976 4 0 tcp 1040 ------- 4 4.0 0.1 36 55
r 0.73108 4 0 tcp 1040 ------- 4 4.0 0.1 19 30
+ 0.73108 0 4 ack 40 ------- 4 0.1 4.0 19 56
- 0.73108 0 4 ack 40 ------- 4 0.1 4.0 19 56
- 0.73272 4 0 tcp 1040 ------- 4 4.0 0.1 22 34
r 0.73808 0 4 ack 40 ------- 4 0.1 4.0 18 53
+ 0.73808 4 0 tcp 1040 ------- 4 4.0 0.1 37 57
+ 0.73808 4 0 tcp 1040 ------- 4 4.0 0.1 38 58
r 0.7394 4 0 tcp 1040 ------- 4 4.0 0.1 20 31
+ 0.7394 0 4 ack 40 ------- 4 0.1 4.0 20 59
- 0.7394 0 4 ack 40 ------- 4 0.1 4.0 20 59
- 0.74104 4 0 tcp 1040 ------- 4 4.0 0.1 23 36
r 0.7464 0 4 ack 40 ------- 4 0.1 4.0 19 56
+ 0.7464 4 0 tcp 1040 ------- 4 4.0 0.1 39 60
r 0.74772 4 0 tcp 1040 ------- 4 4.0 0.1 21 33
+ 0.74772 0 4 ack 40 ------- 4 0.1 4.0 21 61
- 0.74772 0 4 ack 40 ------- 4 0.1 4.0 21 61
- 0.74936 4 0 tcp 1040 ------- 4 4.0 0.1 24 37
r 0.75472 0 4 ack 40 ------- 4 0.1 4.0 20 59
+ 0.75472 4 0 tcp 1040 ------- 4 4.0 0.1 40 62
r 0.75604 4 0 tcp 1040 ------- 4 4.0 0.1 22 34
+ 0.75604 0 4 ack 40 ------- 4 0.1 4.0 22 63
- 0.75604 0 4 ack 40 ------- 4 0.1 4.0 22 63
- 0.75768 4 0 tcp 1040 ------- 4 4.0 0.1 25 39
r 0.76304 0 4 ack 40 ------- 4 0.1 4.0 21 61
+ 0.76304 4 0 tcp 1040 ------- 4 4.0 0.1 41 64
r 0.76436 4 0 tcp 1040 ------- 4 4.0 0.1 23 36
+ 0.76436 0 4 ack 40 ------- 4 0.1 4.0 23 65
- 0.76436 0 4 ack 40 ------- 4 0.1 4.0 23 65
- 0.766 4 0 tcp 1040 ------- 4 4.0 0.1 26 40
r 0.77136 0 4 ack 40 ------- 4 0.1 4.0 22 63
+ 0.77136 4 0 tcp 1040 ------- 4 4.0 0.1 42 66
r 0.77268 4 0 tcp 1040 ------- 4 4.0 0.1 24 37
+ 0.77268 0 4 ack 40 ------- 4 0.1 4.0 24 67
- 0.77268 0 4 ack 40 ------- 4 0.1 4.0 24 67
- 0.77432 4 0 tcp 1040 ------- 4 4.0 0.1 27 42
r 0.77968 0 4 ack 40 ------- 4 0.1 4.0 23 65
+ 0.77968 4 0 tcp 1040 ------- 4 4.0 0.1 43 68
r 0.781 4 0 tcp 1040 ------- 4 4.0 0.1 25 39
+ 0.781 0 4 ack 40 ------- 4 0.1 4.0 25 69
- 0.781 0 4 ack 40 ------- 4 0.1 4.0 25 69
- 0.78264 4 0 tcp 1040 ------- 4 4.0 0.1 28 43
r 0.788 0 4 ack 40 ------- 4 0.1 4.0 24 67
+ 0.788 4 0 tcp 1040 ------- 4 4.0 0.1 44 70
r 0.78932 4 0 tcp 1040 ------- 4 4.0 0.1 26 40
+ 0.78932 0 4 ack 40 ------- 4 0.1 4.0 26 71
- 0.78932 0 4 ack 40 ------- 4 0.1 4.0 26 71
- 0.79096 4 0 tcp 1040 ------- 4 4.0 0.1 29 45
r 0.79632 0 4 ack 40 ------- 4 0.1 4.0 25 69
+ 0.79632 4 0 tcp 1040 ------- 4 4.0 0.1 45 72
r 0.79764 4 0 tcp 1040 ------- 4 4.0 0.1 27 42
+ 0.79764 0 4 ack 40 ------- 4 0.1 4.0 27 73
- 0.79764 0 4 ack 40 ------- 4 0.1 4.0 27 73
- 0.79928 4 0 tcp 1040 ------- 4 4.0 0.1 30 46
+ 0.8 1 2 cbr 1000 ------- 1 1.0 3.2 0 74
- 0.8 1 2 cbr 1000 ------- 1 1.0 3.2 0 74
r 0.80464 0 4 ack 40 ------- 4 0.1 4.0 26 71
+ 0.80464 4 0 tcp 1040 ------- 4 4.0 0.1 46 75
r 0.80596 4 0 tcp 1040 ------- 4 4.0 0.1 28 43
+ 0.80596 0 4 ack 40 ------- 4 0.1 4.0 28 76
- 0.80596 0 4 ack 40 ------- 4 0.1 4.0 28 76
- 0.8076 4 0 tcp 1040 ------- 4 4.0 0.1 31 48
+ 0.808 1 2 cbr 1000 ------- 1 1.0 3.2 1 77
- 0.808 1 2 cbr 1000 ------- 1 1.0 3.2 1 77
r 0.81296 0 4 ack 40 ------- 4 0.1 4.0 27 73
+ 0.81296 4 0 tcp 1040 ------- 4 4.0 0.1 47 78
r 0.81428 4 0 tcp 1040 ------- 4 4.0 0.1 29 45
+ 0.81428 0 4 ack 40 ------- 4 0.1 4.0 29 79
- 0.81428 0 4 ack 40 ------- 4 0.1 4.0 29 79
- 0.81592 4 0 tcp 1040 ------- 4 4.0 0.1 32 49
+ 0.816 1 2 cbr 1000 ------- 1 1.0 3.2 2 80
- 0.816 1 2 cbr 1000 ------- 1 1.0 3.2 2 80
r 0.82128 0 4 ack 40 ------- 4 0.1 4.0 28 76
+ 0.82128 4 0 tcp 1040 ------- 4 4.0 0.1 48 81
r 0.8226 4 0 tcp 1040 ------- 4 4.0 0.1 30 46
+ 0.8226 0 4 ack 40 ------- 4 0.1 4.0 30 82
- 0.8226 0 4 ack 40 ------- 4 0.1 4.0 30 82
r 0.823 1 2 cbr 1000 ------- 1 1.0 3.2 0 74
+ 0.823 2 3 cbr 1000 ------- 1 1.0 3.2 0 74
- 0.823 2 3 cbr 1000 ------- 1 1.0 3.2 0 74
+ 0.824 1 2 cbr 1000 ------- 1 1.0 3.2 3 83
- 0.824 1 2 cbr 1000 ------- 1 1.0 3.2 3 83
- 0.82424 4 0 tcp 1040 ------- 4 4.0 0.1 33 51
r 0.8296 0 4 ack 40 ------- 4 0.1 4.0 29 79
+ 0.8296 4 0 tcp 1040 ------- 4 4.0 0.1 49 84
r 0.83092 4 0 tcp 1040 ------- 4 4.0 0.1 31 48
+ 0.83092 0 4 ack 40 ------- 4 0.1 4.0 31 85
- 0.83092 0 4 ack 40 ------- 4 0.1 4.0 31 85
r 0.831 1 2 cbr 1000 ------- 1 1.0 3.2 1 77
+ 0.831 2 3 cbr 1000 ------- 1 1.0 3.2 1 77
- 0.831 2 3 cbr 1000 ------- 1 1.0 3.2 1 77
+ 0.832 1 2 cbr 1000 ------- 1 1.0 3.2 4 86
- 0.832 1 2 cbr 1000 ------- 1 1.0 3.2 4 86
- 0.83256 4 0 tcp 1040 ------- 4 4.0 0.1 34 52
r 0.83792 0 4 ack 40 ------- 4 0.1 4.0 30 82
+ 0.83792 4 0 tcp 1040 ------- 4 4.0 0.1 50 87
r 0.839 1 2 cbr 1000 ------- 1 1.0 3.2 2 80
+ 0.839 2 3 cbr 1000 ------- 1 1.0 3.2 2 80
- 0.839 2 3 cbr 1000 ------- 1 1.0 3.2 2 80
r 0.83924 4 0 tcp 1040 ------- 4 4.0 0.1 32 49
+ 0.83924 0 4 ack 40 ------- 4 0.1 4.0 32 88
- 0.83924 0 4 ack 40 ------- 4 0.1 4.0 32 88
+ 0.84 1 2 cbr 1000 ------- 1 1.0 3.2 5 89
- 0.84 1 2 cbr 1000 ------- 1 1.0 3.2 5 89
- 0.84088 4 0 tcp 1040 ------- 4 4.0 0.1 35 54
r 0.846 2 3 cbr 1000 ------- 1 1.0 3.2 0 74
r 0.84624 0 4 ack 40 ------- 4 0.1 4.0 31 85
+ 0.84624 4 0 tcp 1040 ------- 4 4.0 0.1 51 90
r 0.847 1 2 cbr 1000 ------- 1 1.0 3.2 3 83
+ 0.847 2 3 cbr 1000 ------- 1 1.0 3.2 3 83
- 0.847 2 3 cbr 1000 ------- 1 1.0 3.2 3 83
r 0.84756 4 0 tcp 1040 ------- 4 4.0 0.1 33 51
+ 0.84756 0 4 ack 40 ------- 4 0.1 4.0 33 91
- 0.84756 0 4 ack 40 ------- 4 0.1 4.0 33 91
+ 0.848 1 2 cbr 1000 ------- 1 1.0 3.2 6 92
- 0.848 1 2 cbr 1000 ------- 1 1.0 3.2 6 92
- 0.8492 4 0 tcp 1040 ------- 4 4.0 0.1 36 55
r 0.854 2 3 cbr 1000 ------- 1 1.0 3.2 1 77
r 0.85456 0 4 ack 40 ------- 4 0.1 4.0 32 88
+ 0.85456 4 0 tcp 1040 ------- 4 4.0 0.1 52 93
r 0.855 1 2 cbr 1000 ------- 1 1.0 3.2 4 86
+ 0.855 2 3 cbr 1000 ------- 1 1.0 3.2 4 86
- 0.855 2 3 cbr 1000 ------- 1 1.0 3.2 4 86
r 0.85588 4 0 tcp 1040 ------- 4 4.0 0.1 34 52
+ 0.85588 0 4 ack 40 ------- 4 0.1 4.0 34 94
- 0.85588 0 4 ack 40 ------- 4 0.1 4.0 34 94
+ 0.856 1 2 cbr 1000 ------- 1 1.0 3.2 7 95
- 0.856 1 2 cbr 1000 ------- 1 1.0 3.2 7 95
- 0.85752 4 0 tcp 1040 ------- 4 4.0 0.1 37 57
r 0.862 2 3 cbr 1000 ------- 1 1.0 3.2 2 80
r 0.86288 0 4 ack 40 ------- 4 0.1 4.0 33 91
+ 0.86288 4 0 tcp 1040 ------- 4 4.0 0.1 53 96
r 0.863 1 2 cbr 1000 ------- 1 1.0 3.2 5 89
+ 0.863 2 3 cbr 1000 ------- 1 1.0 3.2 5 89
- 0.863 2 3 cbr 1000 ------- 1 1.0 3.2 5 89
+ 0.864 1 2 cbr 1000 ------- 1 1.0 3.2 8 97
- 0.864 1 2 cbr 1000 ------- 1 1.0 3.2 8 97
r 0.8642 4 0 tcp 1040 ------- 4 4.0 0.1 35 54
+ 0.8642 0 4 ack 40 ------- 4 0.1 4.0 35 98
- 0.8642 0 4 ack 40 ------- 4 0.1 4.0 35 98
- 0.86584 4 0 tcp 1040 ------- 4 4.0 0.1 38 58
r 0.87 2 3 cbr 1000 ------- 1 1.0 3.2 3 83
r 0.871 1 2 cbr 1000 ------- 1 1.0 3.2 6 92
+ 0.871 2 3 cbr 1000 ------- 1 1.0 3.2 6 92
- 0.871 2 3 cbr 1000 ------- 1 1.0 3.2 6 92
r 0.8712 0 4 ack 40 ------- 4 0.1 4.0 34 94
+ 0.8712 4 0 tcp 1040 ------- 4 4.0 0.1 54 99
+ 0.872 1 2 cbr 1000 ------- 1 1.0 3.2 9 100
- 0.872 1 2 cbr 1000 ------- 1 1.0 3.2 9 100
r 0.87252 4 0 tcp 1040 ------- 4 4.0 0.1 36 55
+ 0.87252 0 4 ack 40 ------- 4 0.1 4.0 36 101
- 0.87252 0 4 ack 40 ------- 4 0.1 4.0 36 101
- 0.87416 4 0 tcp 1040 ------- 4 4.0 0.1 39 60
r 0.878 2 3 cbr 1000 ------- 1 1.0 3.2 4 86
r 0.879 1 2 cbr 1000 ------- 1 1.0 3.2 7 95
+ 0.879 2 3 cbr 1000 ------- 1 1.0 3.2 7 95
- 0.879 2 3 cbr 1000 ------- 1 1.0 3.2 7 95
r 0.87952 0 4 ack 40 ------- 4 0.1 4.0 35 98
+ 0.87952 4 0 tcp 1040 ------- 4 4.0 0.1 55 102
+ 0.88 1 2 cbr 1000 ------- 1 1.0 3.2 10 103
- 0.88 1 2 cbr 1000 ------- 1 1.0 3.2 10 103
r 0.88084 4 0 tcp 1040 ------- 4 4.0 0.1 37 57
+ 0.88084 0 4 ack 40 ------- 4 0.1 4.0 37 104
- 0.88084 0 4 ack 40 ------- 4 0.1 4.0 37 104
- 0.88248 4 0 tcp 1040 ------- 4 4.0 0.1 40 62
r 0.886 2 3 cbr 1000 ------- 1 1.0 3.2 5 89
r 0.887 1 2 cbr 1000 ------- 1 1.0 3.2 8 97
+ 0.887 2 3 cbr 1000 ------- 1 1.0 3.2 8 97
- 0.887 2 3 cbr 1000 ------- 1 1.0 3.2 8 97
r 0.88784 0 4 ack 40 ------- 4 0.1 4.0 36 101
+ 0.88784 4 0 tcp 1040 ------- 4 4.0 0.1 56 105
+ 0.888 1 2 cbr 1000 ------- 1 1.0 3.2 11 106
- 0.888 1 2 cbr 1000 ------- 1 1.0 3.2 11 106
r 0.88916 4 0 tcp 1040 ------- 4 4.0 0.1 38 58
+ 0.88916 0 4 ack 40 ------- 4 0.1 4.0 38 107
- 0.88916 0 4 ack 40 ------- 4 0.1 4.0 38 107
- 0.8908 4 0 tcp 1040 ------- 4 4.0 0.1 41 64
r 0.894 2 3 cbr 1000 ------- 1 1.0 3.2 6 92
r 0.895 1 2 cbr 1000 ------- 1 1.0 3.2 9 100
+ 0.895 2 3 cbr 1000 ------- 1 1.0 3.2 9 100
- 0.895 2 3 cbr 1000 ------- 1 1.0 3.2 9 100
+ 0.896 1 2 cbr 1000 ------- 1 1.0 3.2 12 108
- 0.896 1 2 cbr 1000 ------- 1 1.0 3.2 12 108
r 0.89616 0 4 ack 40 ------- 4 0.1 4.0 37 104
+ 0.89616 4 0 tcp 1040 ------- 4 4.0 0.1 57 109
r 0.89748 4 0 tcp 1040 ------- 4 4.0 0.1 39 60
+ 0.89748 0 4 ack 40 ------- 4 0.1 4.0 39 110
- 0.89748 0 4 ack 40 ------- 4 0.1 4.0 39 110
- 0.89912 4 0 tcp 1040 ------- 4 4.0 0.1 42 66
r 0.902 2 3 cbr 1000 ------- 1 1.0 3.2 7 95
r 0.903 1 2 cbr 1000 ------- 1 1.0 3.2 10 103
+ 0.903 2 3 cbr 1000 ------- 1 1.0 3.2 10 103
- 0.903 2 3 cbr 1000 ------- 1 1.0 3.2 10 103
+ 0.904 1 2 cbr 1000 ------- 1 1.0 3.2 13 111
- 0.904 1 2 cbr 1000 ------- 1 1.0 3.2 13 111
r 0.90448 0 4 ack 40 ------- 4 0.1 4.0 38 107
+ 0.90448 4 0 tcp 1040 ------- 4 4.0 0.1 58 112
r 0.9058 4 0 tcp 1040 ------- 4 4.0 0.1 40 62
+ 0.9058 0 4 ack 40 ------- 4 0.1 4.0 40 113
- 0.9058 0 4 ack 40 ------- 4 0.1 4.0 40 113
- 0.90744 4 0 tcp 1040 ------- 4 4.0 0.1 43 68
r 0.91 2 3 cbr 1000 ------- 1 1.0 3.2 8 97
r 0.911 1 2 cbr 1000 ------- 1 1.0 3.2 11 106
+ 0.911 2 3 cbr 1000 ------- 1 1.0 3.2 11 106
- 0.911 2 3 cbr 1000 ------- 1 1.0 3.2 11 106
+ 0.912 1 2 cbr 1000 ------- 1 1.0 3.2 14 114
- 0.912 1 2 cbr 1000 ------- 1 1.0 3.2 14 114
r 0.9128 0 4 ack 40 ------- 4 0.1 4.0 39 110
+ 0.9128 4 0 tcp 1040 ------- 4 4.0 0.1 59 115
r 0.91412 4 0 tcp 1040 ------- 4 4.0 0.1 41 64
+ 0.91412 0 4 ack 40 ------- 4 0.1 4.0 41 116
- 0.91412 0 4 ack 40 ------- 4 0.1 4.0 41 116
- 0.91576 4 0 tcp 1040 ------- 4 4.0 0.1 44 70
r 0.918 2 3 cbr 1000 ------- 1 1.0 3.2 9 100
r 0.919 1 2 cbr 1000 ------- 1 1.0 3.2 12 108
+ 0.919 2 3 cbr 1000 ------- 1 1.0 3.2 12 108
- 0.919 2 3 cbr 1000 ------- 1 1.0 3.2 12 108
+ 0.92 1 2 cbr 1000 ------- 1 1.0 3.2 15 117
- 0.92 1 2 cbr 1000 ------- 1 1.0 3.2 15 117
r 0.92112 0 4 ack 40 ------- 4 0.1 4.0 40 113
+ 0.92112 4 0 tcp 1040 ------- 4 4.0 0.1 60 118
r 0.92244 4 0 tcp 1040 ------- 4 4.0 0.1 42 66
+ 0.92244 0 4 ack 40 ------- 4 0.1 4.0 42 119
- 0.92244 0 4 ack 40 ------- 4 0.1 4.0 42 119
- 0.92408 4 0 tcp 1040 ------- 4 4.0 0.1 45 72
r 0.926 2 3 cbr 1000 ------- 1 1.0 3.2 10 103
r 0.927 1 2 cbr 1000 ------- 1 1.0 3.2 13 111
+ 0.927 2 3 cbr 1000 ------- 1 1.0 3.2 13 111
- 0.927 2 3 cbr 1000 ------- 1 1.0 3.2 13 111
+ 0.928 1 2 cbr 1000 ------- 1 1.0 3.2 16 120
- 0.928 1 2 cbr 1000 ------- 1 1.0 3.2 16 120
r 0.92944 0 4 ack 40 ------- 4 0.1 4.0 41 116
+ 0.92944 4 0 tcp 1040 ------- 4 4.0 0.1 61 121
r 0.93076 4 0 tcp 1040 ------- 4 4.0 0.1 43 68
+ 0.93076 0 4 ack 40 ------- 4 0.1 4.0 43 122
- 0.93076 0 4 ack 40 ------- 4 0.1 4.0 43 122
- 0.9324 4 0 tcp 1040 ------- 4 4.0 0.1 46 75
r 0.934 2 3 cbr 1000 ------- 1 1.0 3.2 11 106
r 0.935 1 2 cbr 1000 ------- 1 1.0 3.2 14 114
+ 0.935 2 3 cbr 1000 ------- 1 1.0 3.2 14 114
- 0.935 2 3 cbr 1000 ------- 1 1.0 3.2 14 114
+ 0.936 1 2 cbr 1000 ------- 1 1.0 3.2 17 123
- 0.936 1 2 cbr 1000 ------- 1 1.0 3.2 17 123
r 0.93776 0 4 ack 40 ------- 4 0.1 4.0 42 119
+ 0.93776 4 0 tcp 1040 ------- 4 4.0 0.1 62 124
r 0.93908 4 0 tcp 1040 ------- 4 4.0 0.1 44 70
+ 0.93908 0 4 ack 40 ------- 4 0.1 4.0 44 125
- 0.93908 0 4 ack 40 ------- 4 0.1 4.0 44 125
- 0.94072 4 0 tcp 1040 ------- 4 4.0 0.1 47 78
r 0.942 2 3 cbr 1000 ------- 1 1.0 3.2 12 108
r 0.943 1 2 cbr 1000 ------- 1 1.0 3.2 15 117
+ 0.943 2 3 cbr 1000 ------- 1 1.0 3.2 15 117
- 0.943 2 3 cbr 1000 ------- 1 1.0 3.2 15 117
+ 0.944 1 2 cbr 1000 ------- 1 1.0 3.2 18 126
- 0.944 1 2 cbr 1000 ------- 1 1.0 3.2 18 126
r 0.94608 0 4 ack 40 ------- 4 0.1 4.0 43 122
+ 0.94608 4 0 tcp 1040 ------- 4 4.0 0.1 63 127
r 0.9474 4 0 tcp 1040 ------- 4 4.0 0.1 45 72
+ 0.9474 0 4 ack 40 ------- 4 0.1 4.0 45 128
- 0.9474 0 4 ack 40 ------- 4 0.1 4.0 45 128
- 0.94904 4 0 tcp 1040 ------- 4 4.0 0.1 48 81
r 0.95 2 3 cbr 1000 ------- 1 1.0 3.2 13 111
r 0.951 1 2 cbr 1000 ------- 1 1.0 3.2 16 120
+ 0.951 2 3 cbr 1000 ------- 1 1.0 3.2 16 120
- 0.951 2 3 cbr 1000 ------- 1 1.0 3.2 16 120
+ 0.952 1 2 cbr 1000 ------- 1 1.0 3.2 19 129
- 0.952 1 2 cbr 1000 ------- 1 1.0 3.2 19 129
r 0.9544 0 4 ack 40 ------- 4 0.1 4.0 44 125
+ 0.9544 4 0 tcp 1040 ------- 4 4.0 0.1 64 130
r 0.95572 4 0 tcp 1040 ------- 4 4.0 0.1 46 75
+ 0.95572 0 4 ack 40 ------- 4 0.1 4.0 46 131
- 0.95572 0 4 ack 40 ------- 4 0.1 4.0 46 131
- 0.95736 4 0 tcp 1040 ------- 4 4.0 0.1 49 84
r 0.958 2 3 cbr 1000 ------- 1 1.0 3.2 14 114
r 0.959 1 2 cbr 1000 ------- 1 1.0 3.2 17 123
+ 0.959 2 3 cbr 1000 ------- 1 1.0 3.2 17 123
- 0.959 2 3 cbr 1000 ------- 1 1.0 3.2 17 123
+ 0.96 1 2 cbr 1000 ------- 1 1.0 3.2 20 132
- 0.96 1 2 cbr 1000 ------- 1 1.0 3.2 20 132
r 0.96272 0 4 ack 40 ------- 4 0.1 4.0 45 128
+ 0.96272 4 0 tcp 1040 ------- 4 4.0 0.1 65 133
r 0.96404 4 0 tcp 1040 ------- 4 4.0 0.1 47 78
+ 0.96404 0 4 ack 40 ------- 4 0.1 4.0 47 134
- 0.96404 0 4 ack 40 ------- 4 0.1 4.0 47 134
- 0.96568 4 0 tcp 1040 ------- 4 4.0 0.1 50 87
r 0.966 2 3 cbr 1000 ------- 1 1.0 3.2 15 117
r 0.967 1 2 cbr 1000 ------- 1 1.0 3.2 18 126
+ 0.967 2 3 cbr 1000 ------- 1 1.0 3.2 18 126
- 0.967 2 3 cbr 1000 ------- 1 1.0 3.2 18 126
+ 0.968 1 2 cbr 1000 ------- 1 1.0 3.2 21 135
- 0.968 1 2 cbr 1000 ------- 1 1.0 3.2 21 135
r 0.97104 0 4 ack 40 ------- 4 0.1 4.0 46 131
+ 0.97104 4 0 tcp 1040 ------- 4 4.0 0.1 66 136
r 0.97236 4 0 tcp 1040 ------- 4 4.0 0.1 48 81
+ 0.97236 0 4 ack 40 ------- 4 0.1 4.0 48 137
- 0.97236 0 4 ack 40 ------- 4 0.1 4.0 48 137
- 0.974 4 0 tcp 1040 ------- 4 4.0 0.1 51 90
r 0.974 2 3 cbr 1000 ------- 1 1.0 3.2 16 120
r 0.975 1 2 cbr 1000 ------- 1 1.0 3.2 19 129
+ 0.975 2 3 cbr 1000 ------- 1 1.0 3.2 19 129
- 0.975 2 3 cbr 1000 ------- 1 1.0 3.2 19 129
+ 0.976 1 2 cbr 1000 ------- 1 1.0 3.2 22 138
- 0.976 1 2 cbr 1000 ------- 1 1.0 3.2 22 138
r 0.97936 0 4 ack 40 ------- 4 0.1 4.0 47 134
+ 0.97936 4 0 tcp 1040 ------- 4 4.0 0.1 67 139
r 0.98068 4 0 tcp 1040 ------- 4 4.0 0.1 49 84
+ 0.98068 0 4 ack 40 ------- 4 0.1 4.0 49 140
- 0.98068 0 4 ack 40 ------- 4 0.1 4.0 49 140
r 0.982 2 3 cbr 1000 ------- 1 1.0 3.2 17 123
- 0.98232 4 0 tcp 1040 ------- 4 4.0 0.1 52 93
r 0.983 1 2 cbr 1000 ------- 1 1.0 3.2 20 132
+ 0.983 2 3 cbr 1000 ------- 1 1.0 3.2 20 132
- 0.983 2 3 cbr 1000 ------- 1 1.0 3.2 20 132
+ 0.984 1 2 cbr 1000 ------- 1 1.0 3.2 23 141
- 0.984 1 2 cbr 1000 ------- 1 1.0 3.2 23 141
r 0.98768 0 4 ack 40 ------- 4 0.1 4.0 48 137
+ 0.98768 4 0 tcp 1040 ------- 4 4.0 0.1 68 142
r 0.989 4 0 tcp 1040 ------- 4 4.0 0.1 50 87
+ 0.989 0 4 ack 40 ------- 4 0.1 4.0 50 143
- 0.989 0 4 ack 40 ------- 4 0.1 4.0 50 143
r 0.99 2 3 cbr 1000 ------- 1 1.0 3.2 18 126
- 0.99064 4 0 tcp 1040 ------- 4 4.0 0.1 53 96
r 0.991 1 2 cbr 1000 ------- 1 1.0 3.2 21 135
+ 0.991 2 3 cbr 1000 ------- 1 1.0 3.2 21 135
- 0.991 2 3 cbr 1000 ------- 1 1.0 3.2 21 135
+ 0.992 1 2 cbr 1000 ------- 1 1.0 3.2 24 144
- 0.992 1 2 cbr 1000 ------- 1 1.0 3.2 24 144
r 0.996 0 4 ack 40 ------- 4 0.1 4.0 49 140
+ 0.996 4 0 tcp 1040 ------- 4 4.0 0.1 69 145
r 0.99732 4 0 tcp 1040 ------- 4 4.0 0.1 51 90
+ 0.99732 0 4 ack 40 ------- 4 0.1 4.0 51 146
- 0.99732 0 4 ack 40 ------- 4 0.1 4.0 51 146
r 0.998 2 3 cbr 1000 ------- 1 1.0 3.2 19 129
- 0.99896 4 0 tcp 1040 ------- 4 4.0 0.1 54 99
r 0.999 1 2 cbr 1000 ------- 1 1.0 3.2 22 138
+ 0.999 2 3 cbr 1000 ------- 1 1.0 3.2 22 138
- 0.999 2 3 cbr 1000 ------- 1 1.0 3.2 22 138
+ 1 0 2 tcp 40 ------- 2 0.0 3.0 0 147
- 1 0 2 tcp 40 ------- 2 0.0 3.0 0 147
+ 1 1 2 cbr 1000 ------- 1 1.0 3.2 25 148
- 1 1 2 cbr 1000 ------- 1 1.0 3.2 25 148
r 1.00432 0 4 ack 40 ------- 4 0.1 4.0 50 143
+ 1.00432 4 0 tcp 1040 ------- 4 4.0 0.1 70 149
r 1.00564 4 0 tcp 1040 ------- 4 4.0 0.1 52 93
+ 1.00564 0 4 ack 40 ------- 4 0.1 4.0 52 150
- 1.00564 0 4 ack 40 ------- 4 0.1 4.0 52 150
r 1.006 2 3 cbr 1000 ------- 1 1.0 3.2 20 132
r 1.007 1 2 cbr 1000 ------- 1 1.0 3.2 23 141
+ 1.007 2 3 cbr 1000 ------- 1 1.0 3.2 23 141
- 1.007 2 3 cbr 1000 ------- 1 1.0 3.2 23 141
- 1.00728 4 0 tcp 1040 ------- 4 4.0 0.1 55 102
+ 1.008 1 2 cbr 1000 ------- 1 1.0 3.2 26 151
- 1.008 1 2 cbr 1000 ------- 1 1.0 3.2 26 151
r 1.01264 0 4 ack 40 ------- 4 0.1 4.0 51 146
+ 1.01264 4 0 tcp 1040 ------- 4 4.0 0.1 71 152
r 1.01396 4 0 tcp 1040 ------- 4 4.0 0.1 53 96
+ 1.01396 0 4 ack 40 ------- 4 0.1 4.0 53 153
- 1.01396 0 4 ack 40 ------- 4 0.1 4.0 53 153
r 1.014 2 3 cbr 1000 ------- 1 1.0 3.2 21 135
r 1.015 1 2 cbr 1000 ------- 1 1.0 3.2 24 144
+ 1.015 2 3 cbr 1000 ------- 1 1.0 3.2 24 144
- 1.015 2 3 cbr 1000 ------- 1 1.0 3.2 24 144
r 1.01532 0 2 tcp 40 ------- 2 0.0 3.0 0 147
+ 1.01532 2 3 tcp 40 ------- 2 0.0 3.0 0 147
- 1.0156 4 0 tcp 1040 ------- 4 4.0 0.1 56 105
+ 1.016 1 2 cbr 1000 ------- 1 1.0 3.2 27 154
- 1.016 1 2 cbr 1000 ------- 1 1.0 3.2 27 154
r 1.02096 0 4 ack 40 ------- 4 0.1 4.0 52 150
+ 1.02096 4 0 tcp 1040 ------- 4 4.0 0.1 72 155
r 1.022 2 3 cbr 1000 ------- 1 1.0 3.2 22 138
r 1.02228 4 0 tcp 1040 ------- 4 4.0 0.1 54 99
+ 1.02228 0 4 ack 40 ------- 4 0.1 4.0 54 156
- 1.02228 0 4 ack 40 ------- 4 0.1 4.0 54 156
r 1.023 1 2 cbr 1000 ------- 1 1.0 3.2 25 148
+ 1.023 2 3 cbr 1000 ------- 1 1.0 3.2 25 148
- 1.023 2 3 tcp 40 ------- 2 0.0 3.0 0 147
- 1.02332 2 3 cbr 1000 ------- 1 1.0 3.2 25 148
- 1.02392 4 0 tcp 1040 ------- 4 4.0 0.1 57 109
+ 1.024 1 2 cbr 1000 ------- 1 1.0 3.2 28 157
- 1.024 1 2 cbr 1000 ------- 1 1.0 3.2 28 157
r 1.02928 0 4 ack 40 ------- 4 0.1 4.0 53 153
+ 1.02928 4 0 tcp 1040 ------- 4 4.0 0.1 73 158
r 1.03 2 3 cbr 1000 ------- 1 1.0 3.2 23 141
r 1.0306 4 0 tcp 1040 ------- 4 4.0 0.1 55 102
+ 1.0306 0 4 ack 40 ------- 4 0.1 4.0 55 159
- 1.0306 0 4 ack 40 ------- 4 0.1 4.0 55 159
r 1.031 1 2 cbr 1000 ------- 1 1.0 3.2 26 151
+ 1.031 2 3 cbr 1000 ------- 1 1.0 3.2 26 151
- 1.03132 2 3 cbr 1000 ------- 1 1.0 3.2 26 151
+ 1.032 1 2 cbr 1000 ------- 1 1.0 3.2 29 160
- 1.032 1 2 cbr 1000 ------- 1 1.0 3.2 29 160
- 1.03224 4 0 tcp 1040 ------- 4 4.0 0.1 58 112
r 1.0376 0 4 ack 40 ------- 4 0.1 4.0 54 156
+ 1.0376 4 0 tcp 1040 ------- 4 4.0 0.1 74 161
r 1.038 2 3 cbr 1000 ------- 1 1.0 3.2 24 144
r 1.03832 2 3 tcp 40 ------- 2 0.0 3.0 0 147
+ 1.03832 3 2 ack 40 ------- 2 3.0 0.0 0 162
- 1.03832 3 2 ack 40 ------- 2 3.0 0.0 0 162
r 1.03892 4 0 tcp 1040 ------- 4 4.0 0.1 56 105
+ 1.03892 0 4 ack 40 ------- 4 0.1 4.0 56 163
- 1.03892 0 4 ack 40 ------- 4 0.1 4.0 56 163
r 1.039 1 2 cbr 1000 ------- 1 1.0 3.2 27 154
+ 1.039 2 3 cbr 1000 ------- 1 1.0 3.2 27 154
- 1.03932 2 3 cbr 1000 ------- 1 1.0 3.2 27 154
+ 1.04 1 2 cbr 1000 ------- 1 1.0 3.2 30 164
- 1.04 1 2 cbr 1000 ------- 1 1.0 3.2 30 164
- 1.04056 4 0 tcp 1040 ------- 4 4.0 0.1 59 115
r 1.04592 0 4 ack 40 ------- 4 0.1 4.0 55 159
+ 1.04592 4 0 tcp 1040 ------- 4 4.0 0.1 75 165
r 1.04632 2 3 cbr 1000 ------- 1 1.0 3.2 25 148
r 1.047 1 2 cbr 1000 ------- 1 1.0 3.2 28 157
+ 1.047 2 3 cbr 1000 ------- 1 1.0 3.2 28 157
r 1.04724 4 0 tcp 1040 ------- 4 4.0 0.1 57 109
+ 1.04724 0 4 ack 40 ------- 4 0.1 4.0 57 166
- 1.04724 0 4 ack 40 ------- 4 0.1 4.0 57 166
- 1.04732 2 3 cbr 1000 ------- 1 1.0 3.2 28 157
+ 1.048 1 2 cbr 1000 ------- 1 1.0 3.2 31 167
- 1.048 1 2 cbr 1000 ------- 1 1.0 3.2 31 167
- 1.04888 4 0 tcp 1040 ------- 4 4.0 0.1 60 118
r 1.05364 3 2 ack 40 ------- 2 3.0 0.0 0 162
+ 1.05364 2 0 ack 40 ------- 2 3.0 0.0 0 162
- 1.05364 2 0 ack 40 ------- 2 3.0 0.0 0 162
r 1.05424 0 4 ack 40 ------- 4 0.1 4.0 56 163
+ 1.05424 4 0 tcp 1040 ------- 4 4.0 0.1 76 168
r 1.05432 2 3 cbr 1000 ------- 1 1.0 3.2 26 151
r 1.055 1 2 cbr 1000 ------- 1 1.0 3.2 29 160
+ 1.055 2 3 cbr 1000 ------- 1 1.0 3.2 29 160
- 1.05532 2 3 cbr 1000 ------- 1 1.0 3.2 29 160
r 1.05556 4 0 tcp 1040 ------- 4 4.0 0.1 58 112
+ 1.05556 0 4 ack 40 ------- 4 0.1 4.0 58 169
- 1.05556 0 4 ack 40 ------- 4 0.1 4.0 58 169
+ 1.056 1 2 cbr 1000 ------- 1 1.0 3.2 32 170
- 1.056 1 2 cbr 1000 ------- 1 1.0 3.2 32 170
- 1.0572 4 0 tcp 1040 ------- 4 4.0 0.1 61 121
r 1.06232 2 3 cbr 1000 ------- 1 1.0 3.2 27 154
r 1.06256 0 4 ack 40 ------- 4 0.1 4.0 57 166
+ 1.06256 4 0 tcp 1040 ------- 4 4.0 0.1 77 171
r 1.063 1 2 cbr 1000 ------- 1 1.0 3.2 30 164
+ 1.063 2 3 cbr 1000 ------- 1 1.0 3.2 30 164
- 1.06332 2 3 cbr 1000 ------- 1 1.0 3.2 30 164
r 1.06388 4 0 tcp 1040 ------- 4 4.0 0.1 59 115
+ 1.06388 0 4 ack 40 ------- 4 0.1 4.0 59 172
- 1.06388 0 4 ack 40 ------- 4 0.1 4.0 59 172
+ 1.064 1 2 cbr 1000 ------- 1 1.0 3.2 33 173
- 1.064 1 2 cbr 1000 ------- 1 1.0 3.2 33 173
- 1.06552 4 0 tcp 1040 ------- 4 4.0 0.1 62 124
r 1.06896 2 0 ack 40 ------- 2 3.0 0.0 0 162
+ 1.06896 0 2 tcp 1040 ------- 2 0.0 3.0 1 174
- 1.06896 0 2 tcp 1040 ------- 2 0.0 3.0 1 174
+ 1.06896 0 2 tcp 1040 ------- 2 0.0 3.0 2 175
r 1.07032 2 3 cbr 1000 ------- 1 1.0 3.2 28 157
r 1.07088 0 4 ack 40 ------- 4 0.1 4.0 58 169
+ 1.07088 4 0 tcp 1040 ------- 4 4.0 0.1 78 176
r 1.071 1 2 cbr 1000 ------- 1 1.0 3.2 31 167
+ 1.071 2 3 cbr 1000 ------- 1 1.0 3.2 31 167
- 1.07132 2 3 cbr 1000 ------- 1 1.0 3.2 31 167
+ 1.072 1 2 cbr 1000 ------- 1 1.0 3.2 34 177
- 1.072 1 2 cbr 1000 ------- 1 1.0 3.2 34 177
r 1.0722 4 0 tcp 1040 ------- 4 4.0 0.1 60 118
+ 1.0722 0 4 ack 40 ------- 4 0.1 4.0 60 178
- 1.0722 0 4 ack 40 ------- 4 0.1 4.0 60 178
- 1.07384 4 0 tcp 1040 ------- 4 4.0 0.1 63 127
- 1.07728 0 2 tcp 1040 ------- 2 0.0 3.0 2 175
r 1.07832 2 3 cbr 1000 ------- 1 1.0 3.2 29 160
r 1.079 1 2 cbr 1000 ------- 1 1.0 3.2 32 170
+ 1.079 2 3 cbr 1000 ------- 1 1.0 3.2 32 170
r 1.0792 0 4 ack 40 ------- 4 0.1 4.0 59 172
+ 1.0792 4 0 tcp 1040 ------- 4 4.0 0.1 79 179
- 1.07932 2 3 cbr 1000 ------- 1 1.0 3.2 32 170
+ 1.08 1 2 cbr 1000 ------- 1 1.0 3.2 35 180
- 1.08 1 2 cbr 1000 ------- 1 1.0 3.2 35 180
r 1.08052 4 0 tcp 1040 ------- 4 4.0 0.1 61 121
+ 1.08052 0 4 ack 40 ------- 4 0.1 4.0 61 181
- 1.08052 0 4 ack 40 ------- 4 0.1 4.0 61 181
- 1.08216 4 0 tcp 1040 ------- 4 4.0 0.1 64 130
r 1.08632 2 3 cbr 1000 ------- 1 1.0 3.2 30 164
r 1.087 1 2 cbr 1000 ------- 1 1.0 3.2 33 173
+ 1.087 2 3 cbr 1000 ------- 1 1.0 3.2 33 173
- 1.08732 2 3 cbr 1000 ------- 1 1.0 3.2 33 173
r 1.08752 0 4 ack 40 ------- 4 0.1 4.0 60 178
+ 1.08752 4 0 tcp 1040 ------- 4 4.0 0.1 80 182
+ 1.088 1 2 cbr 1000 ------- 1 1.0 3.2 36 183
- 1.088 1 2 cbr 1000 ------- 1 1.0 3.2 36 183
r 1.08884 4 0 tcp 1040 ------- 4 4.0 0.1 62 124
+ 1.08884 0 4 ack 40 ------- 4 0.1 4.0 62 184
- 1.08884 0 4 ack 40 ------- 4 0.1 4.0 62 184
- 1.09048 4 0 tcp 1040 ------- 4 4.0 0.1 65 133
r 1.09228 0 2 tcp 1040 ------- 2 0.0 3.0 1 174
+ 1.09228 2 3 tcp 1040 ------- 2 0.0 3.0 1 174
r 1.09432 2 3 cbr 1000 ------- 1 1.0 3.2 31 167
r 1.095 1 2 cbr 1000 ------- 1 1.0 3.2 34 177
+ 1.095 2 3 cbr 1000 ------- 1 1.0 3.2 34 177
- 1.09532 2 3 tcp 1040 ------- 2 0.0 3.0 1 174
r 1.09584 0 4 ack 40 ------- 4 0.1 4.0 61 181
+ 1.09584 4 0 tcp 1040 ------- 4 4.0 0.1 81 185
+ 1.096 1 2 cbr 1000 ------- 1 1.0 3.2 37 186
- 1.096 1 2 cbr 1000 ------- 1 1.0 3.2 37 186
r 1.09716 4 0 tcp 1040 ------- 4 4.0 0.1 63 127
+ 1.09716 0 4 ack 40 ------- 4 0.1 4.0 63 187
- 1.09716 0 4 ack 40 ------- 4 0.1 4.0 63 187
- 1.0988 4 0 tcp 1040 ------- 4 4.0 0.1 66 136
r 1.1006 0 2 tcp 1040 ------- 2 0.0 3.0 2 175
+ 1.1006 2 3 tcp 1040 ------- 2 0.0 3.0 2 175
r 1.10232 2 3 cbr 1000 ------- 1 1.0 3.2 32 170
r 1.103 1 2 cbr 1000 ------- 1 1.0 3.2 35 180
+ 1.103 2 3 cbr 1000 ------- 1 1.0 3.2 35 180
- 1.10364 2 3 cbr 1000 ------- 1 1.0 3.2 34 177
+ 1.104 1 2 cbr 1000 ------- 1 1.0 3.2 38 188
- 1.104 1 2 cbr 1000 ------- 1 1.0 3.2 38 188
r 1.10416 0 4 ack 40 ------- 4 0.1 4.0 62 184
+ 1.10416 4 0 tcp 1040 ------- 4 4.0 0.1 82 189
r 1.10548 4 0 tcp 1040 ------- 4 4.0 0.1 64 130
+ 1.10548 0 4 ack 40 ------- 4 0.1 4.0 64 190
- 1.10548 0 4 ack 40 ------- 4 0.1 4.0 64 190
- 1.10712 4 0 tcp 1040 ------- 4 4.0 0.1 67 139
r 1.11032 2 3 cbr 1000 ------- 1 1.0 3.2 33 173
r 1.111 1 2 cbr 1000 ------- 1 1.0 3.2 36 183
+ 1.111 2 3 cbr 1000 ------- 1 1.0 3.2 36 183
- 1.11164 2 3 tcp 1040 ------- 2 0.0 3.0 2 175
+ 1.112 1 2 cbr 1000 ------- 1 1.0 3.2 39 191
- 1.112 1 2 cbr 1000 ------- 1 1.0 3.2 39 191
r 1.11248 0 4 ack 40 ------- 4 0.1 4.0 63 187