V -t * -v 1.0a5 -a 0
A -t * -n 1 -p 0 -o 0x7fffffff -c 30 -a 1
A -t * -h 1 -m 1073741823 -s 0
c -t * -i 1 -n Red
c -t * -i 2 -n Blue
c -t * -i 3 -n Green
n -t * -a 4 -s 4 -S UP -v circle -c black -i black
n -t * -a 0 -s 0 -S UP -v circle -c black -i black
n -t * -a 1 -s 1 -S UP -v circle -c black -i black
n -t * -a 2 -s 2 -S UP -v circle -c black -i black
n -t * -a 3 -s 3 -S UP -v circle -c black -i black
l -t * -s 0 -d 2 -S UP -r 1000000 -D 0.014999999999999999 -c black -o right-down
l -t * -s 4 -d 0 -S UP -r 1000000 -D 0.014999999999999999 -c black -o right-up
l -t * -s 1 -d 4 -S UP -r 1000000 -D 0.014999999999999999 -c black -o left-up
l -t * -s 2 -d 1 -S UP -r 1000000 -D 0.014999999999999999 -c black -o left-down
l -t * -s 3 -d 2 -S UP -r 1000000 -D 0.014999999999999999 -c black -o left
+ -t 0 -s 0 -d 2 -p tcp -e 40 -c 1 -i 0 -a 1 -x {0.0 3.0 0 ------- null}
- -t 0 -s 0 -d 2 -p tcp -e 40 -c 1 -i 0 -a 1 -x {0.0 3.0 0 ------- null}
h -t 0 -s 0 -d 2 -p tcp -e 40 -c 1 -i 0 -a 1 -x {0.0 3.0 -1 ------- null}
r -t 0.01532 -s 0 -d 2 -p tcp -e 40 -c 1 -i 0 -a 1 -x {0.0 3.0 0 ------- null}
+ -t 0.01532 -s 2 -d 3 -p tcp -e 40 -c 1 -i 0 -a 1 -x {0.0 3.0 0 ------- null}
- -t 0.01532 -s 2 -d 3 -p tcp -e 40 -c 1 -i 0 -a 1 -x {0.0 3.0 0 ------- null}
h -t 0.01532 -s 2 -d 3 -p tcp -e 40 -c 1 -i 0 -a 1 -x {0.0 3.0 -1 ------- null}
r -t 0.03064 -s 2 -d 3 -p tcp -e 40 -c 1 -i 0 -a 1 -x {0.0 3.0 0 ------- null}
+ -t 0.03064 -s 3 -d 2 -p ack -e 40 -c 1 -i 1 -a 1 -x {3.0 0.0 0 ------- null}
- -t 0.03064 -s 3 -d 2 -p ack -e 40 -c 1 -i 1 -a 1 -x {3.0 0.0 0 ------- null}
h -t 0.03064 -s 3 -d 2 -p ack -e 40 -c 1 -i 1 -a 1 -x {3.0 0.0 -1 ------- null}
r -t 0.04596 -s 3 -d 2 -p ack -e 40 -c 1 -i 1 -a 1 -x {3.0 0.0 0 ------- null}
+ -t 0.04596 -s 2 -d 0 -p ack -e 40 -c 1 -i 1 -a 1 -x {3.0 0.0 0 ------- null}
- -t 0.04596 -s 2 -d 0 -p ack -e 40 -c 1 -i 1 -a 1 -x {3.0 0.0 0 ------- null}
h -t 0.04596 -s 2 -d 0 -p ack -e 40 -c 1 -i 1 -a 1 -x {3.0 0.0 -1 ------- null}
r -t 0.06128 -s 2 -d 0 -p ack -e 40 -c 1 -i 1 -a 1 -x {3.0 0.0 0 ------- null}
+ -t 0.06128 -s 0 -d 2 -p tcp -e 1040 -c 1 -i 2 -a 1 -x {0.0 3.0 1 ------- null}
- -t 0.06128 -s 0 -d 2 -p tcp -e 1040 -c 1 -i 2 -a 1 -x {0.0 3.0 1 ------- null}
h -t 0.06128 -s 0 -d 2 -p tcp -e 1040 -c 1 -i 2 -a 1 -x {0.0 3.0 -1 ------- null}
+ -t 0.06128 -s 0 -d 2 -p tcp -e 1040 -c 1 -i 3 -a 1 -x {0.0 3.0 2 ------- null}
- -t 0.0696 -s 0 -d 2 -p tcp -e 1040 -c 1 -i 3 -a 1 -x {0.0 3.0 2 ------- null}
h -t 0.0696 -s 0 -d 2 -p tcp -e 1040 -c 1 -i 3 -a 1 -x {0.0 3.0 -1 ------- null}
r -t 0.0846 -s 0 -d 2 -p tcp -e 1040 -c 1 -i 2 -a 1 -x {0.0 3.0 1 ------- null}
+ -t 0.0846 -s 2 -d 3 -p tcp -e 1040 -c 1 -i 2 -a 1 -x {0.0 3.0 1 ------- null}
- -t 0.0846 -s 2 -d 3 -p tcp -e 1040 -c 1 -i 2 -a 1 -x {0.0 3.0 1 ------- null}
h -t 0.0846 -s 2 -d 3 -p tcp -e 1040 -c 1 -i 2 -a 1 -x {0.0 3.0 -1 ------- null}
r -t 0.09292 -s 0 -d 2 -p tcp -e 1040 -c 1 -i 3 -a 1 -x {0.0 3.0 2 ------- null}
+ -t 0.09292 -s 2 -d 3 -p tcp -e 1040 -c 1 -i 3 -a 1 -x {0.0 3.0 2 ------- null}
- -t 0.09292 -s 2 -d 3 -p tcp -e 1040 -c 1 -i 3 -a 1 -x {0.0 3.0 2 ------- null}
h -t 0.09292 -s 2 -d 3 -p tcp -e 1040 -c 1 -i 3 -a 1 -x {0.0 3.0 -1 ------- null}
+ -t 0.1 -s 3 -d 2 -p cbr -e 1000 -c 2 -i 4 -a 2 -x {3.1 4.0 0 ------- null}
- -t 0.1 -s 3 -d 2 -p cbr -e 1000 -c 2 -i 4 -a 2 -x {3.1 4.0 0 ------- null}
h -t 0.1 -s 3 -d 2 -p cbr -e 1000 -c 2 -i 4 -a 2 -x {3.1 4.0 -1 ------- null}
r -t 0.10792 -s 2 -d 3 -p tcp -e 1040 -c 1 -i 2 -a 1 -x {0.0 3.0 1 ------- null}
+ -t 0.10792 -s 3 -d 2 -p ack -e 40 -c 1 -i 5 -a 1 -x {3.0 0.0 1 ------- null}
- -t 0.108 -s 3 -d 2 -p ack -e 40 -c 1 -i 5 -a 1 -x {3.0 0.0 1 ------- null}
h -t 0.108 -s 3 -d 2 -p ack -e 40 -c 1 -i 5 -a 1 -x {3.0 0.0 -1 ------- null}
+ -t 0.108 -s 3 -d 2 -p cbr -e 1000 -c 2 -i 6 -a 2 -x {3.1 4.0 1 ------- null}
- -t 0.10832 -s 3 -d 2 -p cbr -e 1000 -c 2 -i 6 -a 2 -x {3.1 4.0 1 ------- null}
h -t 0.10832 -s 3 -d 2 -p cbr -e 1000 -c 2 -i 6 -a 2 -x {3.1 4.0 -1 ------- null}
+ -t 0.116 -s 3 -d 2 -p cbr -e 1000 -c 2 -i 7 -a 2 -x {3.1 4.0 2 ------- null}
r -t 0.11624 -s 2 -d 3 -p tcp -e 1040 -c 1 -i 3 -a 1 -x {0.0 3.0 2 ------- null}
+ -t 0.11624 -s 3 -d 2 -p ack -e 40 -c 1 -i 8 -a 1 -x {3.0 0.0 2 ------- null}
- -t 0.11632 -s 3 -d 2 -p cbr -e 1000 -c 2 -i 7 -a 2 -x {3.1 4.0 2 ------- null}
h -t 0.11632 -s 3 -d 2 -p cbr -e 1000 -c 2 -i 7 -a 2 -x {3.1 4.0 -1 ------- null}
r -t 0.123 -s 3 -d 2 -p cbr -e 1000 -c 2 -i 4 -a 2 -x {3.1 4.0 0 ------- null}
+ -t 0.123 -s 2 -d 0 -p cbr -e 1000 -c 2 -i 4 -a 2 -x {3.1 4.0 0 ------- null}
- -t 0.123 -s 2 -d 0 -p cbr -e 1000 -c 2 -i 4 -a 2 -x {3.1 4.0 0 ------- null}
h -t 0.123 -s 2 -d 0 -p cbr -e 1000 -c 2 -i 4 -a 2 -x {3.1 4.0 -1 ------- null}
r -t 0.12332 -s 3 -d 2 -p ack -e 40 -c 1 -i 5 -a 1 -x {3.0 0.0 1 ------- null}
+ -t 0.12332 -s 2 -d 0 -p ack -e 40 -c 1 -i 5 -a 1 -x {3.0 0.0 1 ------- null}
+ -t 0.124 -s 3 -d 2 -p cbr -e 1000 -c 2 -i 9 -a 2 -x {3.1 4.0 3 ------- null}
- -t 0.12432 -s 3 -d 2 -p ack -e 40 -c 1 -i 8 -a 1 -x {3.0 0.0 2 ------- null}
h -t 0.12432 -s 3 -d 2 -p ack -e 40 -c 1 -i 8 -a 1 -x {3.0 0.0 -1 ------- null}
- -t 0.12464 -s 3 -d 2 -p cbr -e 1000 -c 2 -i 9 -a 2 -x {3.1 4.0 3 ------- null}
h -t 0.12464 -s 3 -d 2 -p cbr -e 1000 -c 2 -i 9 -a 2 -x {3.1 4.0 -1 ------- null}
- -t 0.131 -s 2 -d 0 -p ack -e 40 -c 1 -i 5 -a 1 -x {3.0 0.0 1 ------- null}
h -t 0.131 -s 2 -d 0 -p ack -e 40 -c 1 -i 5 -a 1 -x {3.0 0.0 -1 ------- null}
r -t 0.13132 -s 3 -d 2 -p cbr -e 1000 -c 2 -i 6 -a 2 -x {3.1 4.0 1 ------- null}
+ -t 0.13132 -s 2 -d 0 -p cbr -e 1000 -c 2 -i 6 -a 2 -x {3.1 4.0 1 ------- null}
- -t 0.13132 -s 2 -d 0 -p cbr -e 1000 -c 2 -i 6 -a 2 -x {3.1 4.0 1 ------- null}
h -t 0.13132 -s 2 -d 0 -p cbr -e 1000 -c 2 -i 6 -a 2 -x {3.1 4.0 -1 ------- null}
+ -t 0.132 -s 3 -d 2 -p cbr -e 1000 -c 2 -i 10 -a 2 -x {3.1 4.0 4 ------- null}
- -t 0.13264 -s 3 -d 2 -p cbr -e 1000 -c 2 -i 10 -a 2 -x {3.1 4.0 4 ------- null}
h -t 0.13264 -s 3 -d 2 -p cbr -e 1000 -c 2 -i 10 -a 2 -x {3.1 4.0 -1 ------- null}
r -t 0.13932 -s 3 -d 2 -p cbr -e 1000 -c 2 -i 7 -a 2 -x {3.1 4.0 2 ------- null}
+ -t 0.13932 -s 2 -d 0 -p cbr -e 1000 -c 2 -i 7 -a 2 -x {3.1 4.0 2 ------- null}
- -t 0.13932 -s 2 -d 0 -p cbr -e 1000 -c 2 -i 7 -a 2 -x {3.1 4.0 2 ------- null}
h -t 0.13932 -s 2 -d 0 -p cbr -e 1000 -c 2 -i 7 -a 2 -x {3.1 4.0 -1 ------- null}
r -t 0.13964 -s 3 -d 2 -p ack -e 40 -c 1 -i 8 -a 1 -x {3.0 0.0 2 ------- null}
+ -t 0.13964 -s 2 -d 0 -p ack -e 40 -c 1 -i 8 -a 1 -x {3.0 0.0 2 ------- null}
+ -t 0.14 -s 3 -d 2 -p cbr -e 1000 -c 2 -i 11 -a 2 -x {3.1 4.0 5 ------- null}
- -t 0.14064 -s 3 -d 2 -p cbr -e 1000 -c 2 -i 11 -a 2 -x {3.1 4.0 5 ------- null}
h -t 0.14064 -s 3 -d 2 -p cbr -e 1000 -c 2 -i 11 -a 2 -x {3.1 4.0 -1 ------- null}
r -t 0.146 -s 2 -d 0 -p cbr -e 1000 -c 2 -i 4 -a 2 -x {3.1 4.0 0 ------- null}
+ -t 0.146 -s 0 -d 4 -p cbr -e 1000 -c 2 -i 4 -a 2 -x {3.1 4.0 0 ------- null}
- -t 0.146 -s 0 -d 4 -p cbr -e 1000 -c 2 -i 4 -a 2 -x {3.1 4.0 0 ------- null}
h -t 0.146 -s 0 -d 4 -p cbr -e 1000 -c 2 -i 4 -a 2 -x {3.1 4.0 -1 ------- null}
r -t 0.14632 -s 2 -d 0 -p ack -e 40 -c 1 -i 5 -a 1 -x {3.0 0.0 1 ------- null}
+ -t 0.14632 -s 0 -d 2 -p tcp -e 1040 -c 1 -i 12 -a 1 -x {0.0 3.0 3 ------- null}
- -t 0.14632 -s 0 -d 2 -p tcp -e 1040 -c 1 -i 12 -a 1 -x {0.0 3.0 3 ------- null}
h -t 0.14632 -s 0 -d 2 -p tcp -e 1040 -c 1 -i 12 -a 1 -x {0.0 3.0 -1 ------- null}
+ -t 0.14632 -s 0 -d 2 -p tcp -e 1040 -c 1 -i 13 -a 1 -x {0.0 3.0 4 ------- null}
- -t 0.14732 -s 2 -d 0 -p ack -e 40 -c 1 -i 8 -a 1 -x {3.0 0.0 2 ------- null}
h -t 0.14732 -s 2 -d 0 -p ack -e 40 -c 1 -i 8 -a 1 -x {3.0 0.0 -1 ------- null}
r -t 0.14764 -s 3 -d 2 -p cbr -e 1000 -c 2 -i 9 -a 2 -x {3.1 4.0 3 ------- null}
+ -t 0.14764 -s 2 -d 0 -p cbr -e 1000 -c 2 -i 9 -a 2 -x {3.1 4.0 3 ------- null}
- -t 0.14764 -s 2 -d 0 -p cbr -e 1000 -c 2 -i 9 -a 2 -x {3.1 4.0 3 ------- null}
h -t 0.14764 -s 2 -d 0 -p cbr -e 1000 -c 2 -i 9 -a 2 -x {3.1 4.0 -1 ------- null}
+ -t 0.148 -s 3 -d 2 -p cbr -e 1000 -c 2 -i 14 -a 2 -x {3.1 4.0 6 ------- null}
- -t 0.14864 -s 3 -d 2 -p cbr -e 1000 -c 2 -i 14 -a 2 -x {3.1 4.0 6 ------- null}
h -t 0.14864 -s 3 -d 2 -p cbr -e 1000 -c 2 -i 14 -a 2 -x {3.1 4.0 -1 ------- null}
r -t 0.15432 -s 2 -d 0 -p cbr -e 1000 -c 2 -i 6 -a 2 -x {3.1 4.0 1 ------- null}
+ -t 0.15432 -s 0 -d 4 -p cbr -e 1000 -c 2 -i 6 -a 2 -x {3.1 4.0 1 ------- null}
- -t 0.15432 -s 0 -d 4 -p cbr -e 1000 -c 2 -i 6 -a 2 -x {3.1 4.0 1 ------- null}
h -t 0.15432 -s 0 -d 4 -p cbr -e 1000 -c 2 -i 6 -a 2 -x {3.1 4.0 -1 ------- null}
- -t 0.15464 -s 0 -d 2 -p tcp -e 1040 -c 1 -i 13 -a 1 -x {0.0 3.0 4 ------- null}
h -t 0.15464 -s 0 -d 2 -p tcp -e 1040 -c 1 -i 13 -a 1 -x {0.0 3.0 -1 ------- null}
r -t 0.15564 -s 3 -d 2 -p cbr -e 1000 -c 2 -i 10 -a 2 -x {3.1 4.0 4 ------- null}
+ -t 0.15564 -s 2 -d 0 -p cbr -e 1000 -c 2 -i 10 -a 2 -x {3.1 4.0 4 ------- null}
- -t 0.15564 -s 2 -d 0 -p cbr -e 1000 -c 2 -i 10 -a 2 -x {3.1 4.0 4 ------- null}
h -t 0.15564 -s 2 -d 0 -p cbr -e 1000 -c 2 -i 10 -a 2 -x {3.1 4.0 -1 ------- null}
+ -t 0.156 -s 3 -d 2 -p cbr -e 1000 -c 2 -i 15 -a 2 -x {3.1 4.0 7 ------- null}
- -t 0.15664 -s 3 -d 2 -p cbr -e 1000 -c 2 -i 15 -a 2 -x {3.1 4.0 7 ------- null}
h -t 0.15664 -s 3 -d 2 -p cbr -e 1000 -c 2 -i 15 -a 2 -x {3.1 4.0 -1 ------- null}
r -t 0.16232 -s 2 -d 0 -p cbr -e 1000 -c 2 -i 7 -a 2 -x {3.1 4.0 2 ------- null}
+ -t 0.16232 -s 0 -d 4 -p cbr -e 1000 -c 2 -i 7 -a 2 -x {3.1 4.0 2 ------- null}
- -t 0.16232 -s 0 -d 4 -p cbr -e 1000 -c 2 -i 7 -a 2 -x {3.1 4.0 2 ------- null}
h -t 0.16232 -s 0 -d 4 -p cbr -e 1000 -c 2 -i 7 -a 2 -x {3.1 4.0 -1 ------- null}
r -t 0.16264 -s 2 -d 0 -p ack -e 40 -c 1 -i 8 -a 1 -x {3.0 0.0 2 ------- null}
+ -t 0.16264 -s 0 -d 2 -p tcp -e 1040 -c 1 -i 16 -a 1 -x {0.0 3.0 5 ------- null}
+ -t 0.16264 -s 0 -d 2 -p tcp -e 1040 -c 1 -i 17 -a 1 -x {0.0 3.0 6 ------- null}
- -t 0.16296 -s 0 -d 2 -p tcp -e 1040 -c 1 -i 16 -a 1 -x {0.0 3.0 5 ------- null}
h -t 0.16296 -s 0 -d 2 -p tcp -e 1040 -c 1 -i 16 -a 1 -x {0.0 3.0 -1 ------- null}
r -t 0.16364 -s 3 -d 2 -p cbr -e 1000 -c 2 -i 11 -a 2 -x {3.1 4.0 5 ------- null}
+ -t 0.16364 -s 2 -d 0 -p cbr -e 1000 -c 2 -i 11 -a 2 -x {3.1 4.0 5 ------- null}
- -t 0.16364 -s 2 -d 0 -p cbr -e 1000 -c 2 -i 11 -a 2 -x {3.1 4.0 5 ------- null}
h -t 0.16364 -s 2 -d 0 -p cbr -e 1000 -c 2 -i 11 -a 2 -x {3.1 4.0 -1 ------- null}
+ -t 0.164 -s 3 -d 2 -p cbr -e 1000 -c 2 -i 18 -a 2 -x {3.1 4.0 8 ------- null}
- -t 0.16464 -s 3 -d 2 -p cbr -e 1000 -c 2 -i 18 -a 2 -x {3.1 4.0 8 ------- null}
h -t 0.16464 -s 3 -d 2 -p cbr -e 1000 -c 2 -i 18 -a 2 -x {3.1 4.0 -1 ------- null}
r -t 0.169 -s 0 -d 4 -p cbr -e 1000 -c 2 -i 4 -a 2 -x {3.1 4.0 0 ------- null}
r -t 0.16964 -s 0 -d 2 -p tcp -e 1040 -c 1 -i 12 -a 1 -x {0.0 3.0 3 ------- null}
+ -t 0.16964 -s 2 -d 3 -p tcp -e 1040 -c 1 -i 12 -a 1 -x {0.0 3.0 3 ------- null}
- -t 0.16964 -s 2 -d 3 -p tcp -e 1040 -c 1 -i 12 -a 1 -x {0.0 3.0 3 ------- null}
h -t 0.16964 -s 2 -d 3 -p tcp -e 1040 -c 1 -i 12 -a 1 -x {0.0 3.0 -1 ------- null}
r -t 0.17064 -s 2 -d 0 -p cbr -e 1000 -c 2 -i 9 -a 2 -x {3.1 4.0 3 ------- null}
+ -t 0.17064 -s 0 -d 4 -p cbr -e 1000 -c 2 -i 9 -a 2 -x {3.1 4.0 3 ------- null}
- -t 0.17064 -s 0 -d 4 -p cbr -e 1000 -c 2 -i 9 -a 2 -x {3.1 4.0 3 ------- null}
h -t 0.17064 -s 0 -d 4 -p cbr -e 1000 -c 2 -i 9 -a 2 -x {3.1 4.0 -1 ------- null}
- -t 0.17128 -s 0 -d 2 -p tcp -e 1040 -c 1 -i 17 -a 1 -x {0.0 3.0 6 ------- null}
h -t 0.17128 -s 0 -d 2 -p tcp -e 1040 -c 1 -i 17 -a 1 -x {0.0 3.0 -1 ------- null}
r -t 0.17164 -s 3 -d 2 -p cbr -e 1000 -c 2 -i 14 -a 2 -x {3.1 4.0 6 ------- null}
+ -t 0.17164 -s 2 -d 0 -p cbr -e 1000 -c 2 -i 14 -a 2 -x {3.1 4.0 6 ------- null}
- -t 0.17164 -s 2 -d 0 -p cbr -e 1000 -c 2 -i 14 -a 2 -x {3.1 4.0 6 ------- null}
h -t 0.17164 -s 2 -d 0 -p cbr -e 1000 -c 2 -i 14 -a 2 -x {3.1 4.0 -1 ------- null}
+ -t 0.172 -s 3 -d 2 -p cbr -e 1000 -c 2 -i 19 -a 2 -x {3.1 4.0 9 ------- null}
- -t 0.17264 -s 3 -d 2 -p cbr -e 1000 -c 2 -i 19 -a 2 -x {3.1 4.0 9 ------- null}
h -t 0.17264 -s 3 -d 2 -p cbr -e 1000 -c 2 -i 19 -a 2 -x {3.1 4.0 -1 ------- null}
r -t 0.17732 -s 0 -d 4 -p cbr -e 1000 -c 2 -i 6 -a 2 -x {3.1 4.0 1 ------- null}
r -t 0.17796 -s 0 -d 2 -p tcp -e 1040 -c 1 -i 13 -a 1 -x {0.0 3.0 4 ------- null}
+ -t 0.17796 -s 2 -d 3 -p tcp -e 1040 -c 1 -i 13 -a 1 -x {0.0 3.0 4 ------- null}
- -t 0.17796 -s 2 -d 3 -p tcp -e 1040 -c 1 -i 13 -a 1 -x {0.0 3.0 4 ------- null}
h -t 0.17796 -s 2 -d 3 -p tcp -e 1040 -c 1 -i 13 -a 1 -x {0.0 3.0 -1 ------- null}
r -t 0.17864 -s 2 -d 0 -p cbr -e 1000 -c 2 -i 10 -a 2 -x {3.1 4.0 4 ------- null}
+ -t 0.17864 -s 0 -d 4 -p cbr -e 1000 -c 2 -i 10 -a 2 -x {3.1 4.0 4 ------- null}
- -t 0.17864 -s 0 -d 4 -p cbr -e 1000 -c 2 -i 10 -a 2 -x {3.1 4.0 4 ------- null}
h -t 0.17864 -s 0 -d 4 -p cbr -e 1000 -c 2 -i 10 -a 2 -x {3.1 4.0 -1 ------- null}
r -t 0.17964 -s 3 -d 2 -p cbr -e 1000 -c 2 -i 15 -a 2 -x {3.1 4.0 7 ------- null}
+ -t 0.17964 -s 2 -d 0 -p cbr -e 1000 -c 2 -i 15 -a 2 -x {3.1 4.0 7 ------- null}
- -t 0.17964 -s 2 -d 0 -p cbr -e 1000 -c 2 -i 15 -a 2 -x {3.1 4.0 7 ------- null}
h -t 0.17964 -s 2 -d 0 -p cbr -e 1000 -c 2 -i 15 -a 2 -x {3.1 4.0 -1 ------- null}
+ -t 0.18 -s 3 -d 2 -p cbr -e 1000 -c 2 -i 20 -a 2 -x {3.1 4.0 10 ------- null}
- -t 0.18064 -s 3 -d 2 -p cbr -e 1000 -c 2 -i 20 -a 2 -x {3.1 4.0 10 ------- null}
h -t 0.18064 -s 3 -d 2 -p cbr -e 1000 -c 2 -i 20 -a 2 -x {3.1 4.0 -1 ------- null}
r -t 0.18532 -s 0 -d 4 -p cbr -e 1000 -c 2 -i 7 -a 2 -x {3.1 4.0 2 ------- null}
r -t 0.18628 -s 0 -d 2 -p tcp -e 1040 -c 1 -i 16 -a 1 -x {0.0 3.0 5 ------- null}
+ -t 0.18628 -s 2 -d 3 -p tcp -e 1040 -c 1 -i 16 -a 1 -x {0.0 3.0 5 ------- null}
- -t 0.18628 -s 2 -d 3 -p tcp -e 1040 -c 1 -i 16 -a 1 -x {0.0 3.0 5 ------- null}
h -t 0.18628 -s 2 -d 3 -p tcp -e 1040 -c 1 -i 16 -a 1 -x {0.0 3.0 -1 ------- null}
r -t 0.18664 -s 2 -d 0 -p cbr -e 1000 -c 2 -i 11 -a 2 -x {3.1 4.0 5 ------- null}
+ -t 0.18664 -s 0 -d 4 -p cbr -e 1000 -c 2 -i 11 -a 2 -x {3.1 4.0 5 ------- null}
- -t 0.18664 -s 0 -d 4 -p cbr -e 1000 -c 2 -i 11 -a 2 -x {3.1 4.0 5 ------- null}
h -t 0.18664 -s 0 -d 4 -p cbr -e 1000 -c 2 -i 11 -a 2 -x {3.1 4.0 -1 ------- null}
r -t 0.18764 -s 3 -d 2 -p cbr -e 1000 -c 2 -i 18 -a 2 -x {3.1 4.0 8 ------- null}
+ -t 0.18764 -s 2 -d 0 -p cbr -e 1000 -c 2 -i 18 -a 2 -x {3.1 4.0 8 ------- null}
- -t 0.18764 -s 2 -d 0 -p cbr -e 1000 -c 2 -i 18 -a 2 -x {3.1 4.0 8 ------- null}
h -t 0.18764 -s 2 -d 0 -p cbr -e 1000 -c 2 -i 18 -a 2 -x {3.1 4.0 -1 ------- null}
+ -t 0.188 -s 3 -d 2 -p cbr -e 1000 -c 2 -i 21 -a 2 -x {3.1 4.0 11 ------- null}
- -t 0.18864 -s 3 -d 2 -p cbr -e 1000 -c 2 -i 21 -a 2 -x {3.1 4.0 11 ------- null}
h -t 0.18864 -s 3 -d 2 -p cbr -e 1000 -c 2 -i 21 -a 2 -x {3.1 4.0 -1 ------- null}
r -t 0.19296 -s 2 -d 3 -p tcp -e 1040 -c 1 -i 12 -a 1 -x {0.0 3.0 3 ------- null}
+ -t 0.19296 -s 3 -d 2 -p ack -e 40 -c 1 -i 22 -a 1 -x {3.0 0.0 3 ------- null}
r -t 0.19364 -s 0 -d 4 -p cbr -e 1000 -c 2 -i 9 -a 2 -x {3.1 4.0 3 ------- null}
r -t 0.1946 -s 0 -d 2 -p tcp -e 1040 -c 1 -i 17 -a 1 -x {0.0 3.0 6 ------- null}
+ -t 0.1946 -s 2 -d 3 -p tcp -e 1040 -c 1 -i 17 -a 1 -x {0.0 3.0 6 ------- null}
- -t 0.1946 -s 2 -d 3 -p tcp -e 1040 -c 1 -i 17 -a 1 -x {0.0 3.0 6 ------- null}
h -t 0.1946 -s 2 -d 3 -p tcp -e 1040 -c 1 -i 17 -a 1 -x {0.0 3.0 -1 ------- null}
r -t 0.19464 -s 2 -d 0 -p cbr -e 1000 -c 2 -i 14 -a 2 -x {3.1 4.0 6 ------- null}
+ -t 0.19464 -s 0 -d 4 -p cbr -e 1000 -c 2 -i 14 -a 2 -x {3.1 4.0 6 ------- null}
- -t 0.19464 -s 0 -d 4 -p cbr -e 1000 -c 2 -i 14 -a 2 -x {3.1 4.0 6 ------- null}
h -t 0.19464 -s 0 -d 4 -p cbr -e 1000 -c 2 -i 14 -a 2 -x {3.1 4.0 -1 ------- null}
r -t 0.19564 -s 3 -d 2 -p cbr -e 1000 -c 2 -i 19 -a 2 -x {3.1 4.0 9 ------- null}
+ -t 0.19564 -s 2 -d 0 -p cbr -e 1000 -c 2 -i 19 -a 2 -x {3.1 4.0 9 ------- null}
- -t 0.19564 -s 2 -d 0 -p cbr -e 1000 -c 2 -i 19 -a 2 -x {3.1 4.0 9 ------- null}
h -t 0.19564 -s 2 -d 0 -p cbr -e 1000 -c 2 -i 19 -a 2 -x {3.1 4.0 -1 ------- null}
+ -t 0.196 -s 3 -d 2 -p cbr -e 1000 -c 2 -i 23 -a 2 -x {3.1 4.0 12 ------- null}
- -t 0.19664 -s 3 -d 2 -p ack -e 40 -c 1 -i 22 -a 1 -x {3.0 0.0 3 ------- null}
h -t 0.19664 -s 3 -d 2 -p ack -e 40 -c 1 -i 22 -a 1 -x {3.0 0.0 -1 ------- null}
- -t 0.19696 -s 3 -d 2 -p cbr -e 1000 -c 2 -i 23 -a 2 -x {3.1 4.0 12 ------- null}
h -t 0.19696 -s 3 -d 2 -p cbr -e 1000 -c 2 -i 23 -a 2 -x {3.1 4.0 -1 ------- null}
r -t 0.20128 -s 2 -d 3 -p tcp -e 1040 -c 1 -i 13 -a 1 -x {0.0 3.0 4 ------- null}
+ -t 0.20128 -s 3 -d 2 -p ack -e 40 -c 1 -i 24 -a 1 -x {3.0 0.0 4 ------- null}
r -t 0.20164 -s 0 -d 4 -p cbr -e 1000 -c 2 -i 10 -a 2 -x {3.1 4.0 4 ------- null}
r -t 0.20264 -s 2 -d 0 -p cbr -e 1000 -c 2 -i 15 -a 2 -x {3.1 4.0 7 ------- null}
+ -t 0.20264 -s 0 -d 4 -p cbr -e 1000 -c 2 -i 15 -a 2 -x {3.1 4.0 7 ------- null}
- -t 0.20264 -s 0 -d 4 -p cbr -e 1000 -c 2 -i 15 -a 2 -x {3.1 4.0 7 ------- null}
h -t 0.20264 -s 0 -d 4 -p cbr -e 1000 -c 2 -i 15 -a 2 -x {3.1 4.0 -1 ------- null}
r -t 0.20364 -s 3 -d 2 -p cbr -e 1000 -c 2 -i 20 -a 2 -x {3.1 4.0 10 ------- null}
+ -t 0.20364 -s 2 -d 0 -p cbr -e 1000 -c 2 -i 20 -a 2 -x {3.1 4.0 10 ------- null}
- -t 0.20364 -s 2 -d 0 -p cbr -e 1000 -c 2 -i 20 -a 2 -x {3.1 4.0 10 ------- null}
h -t 0.20364 -s 2 -d 0 -p cbr -e 1000 -c 2 -i 20 -a 2 -x {3.1 4.0 -1 ------- null}
+ -t 0.204 -s 3 -d 2 -p cbr -e 1000 -c 2 -i 25 -a 2 -x {3.1 4.0 13 ------- null}
- -t 0.20496 -s 3 -d 2 -p ack -e 40 -c 1 -i 24 -a 1 -x {3.0 0.0 4 ------- null}
h -t 0.20496 -s 3 -d 2 -p ack -e 40 -c 1 -i 24 -a 1 -x {3.0 0.0 -1 ------- null}
- -t 0.20528 -s 3 -d 2 -p cbr -e 1000 -c 2 -i 25 -a 2 -x {3.1 4.0 13 ------- null}
h -t 0.20528 -s 3 -d 2 -p cbr -e 1000 -c 2 -i 25 -a 2 -x {3.1 4.0 -1 ------- null}
r -t 0.2096 -s 2 -d 3 -p tcp -e 1040 -c 1 -i 16 -a 1 -x {0.0 3.0 5 ------- null}
+ -t 0.2096 -s 3 -d 2 -p ack -e 40 -c 1 -i 26 -a 1 -x {3.0 0.0 5 ------- null}
r -t 0.20964 -s 0 -d 4 -p cbr -e 1000 -c 2 -i 11 -a 2 -x {3.1 4.0 5 ------- null}
r -t 0.21064 -s 2 -d 0 -p cbr -e 1000 -c 2 -i 18 -a 2 -x {3.1 4.0 8 ------- null}
+ -t 0.21064 -s 0 -d 4 -p cbr -e 1000 -c 2 -i 18 -a 2 -x {3.1 4.0 8 ------- null}
- -t 0.21064 -s 0 -d 4 -p cbr -e 1000 -c 2 -i 18 -a 2 -x {3.1 4.0 8 ------- null}
h -t 0.21064 -s 0 -d 4 -p cbr -e 1000 -c 2 -i 18 -a 2 -x {3.1 4.0 -1 ------- null}
r -t 0.21164 -s 3 -d 2 -p cbr -e 1000 -c 2 -i 21 -a 2 -x {3.1 4.0 11 ------- null}
+ -t 0.21164 -s 2 -d 0 -p cbr -e 1000 -c 2 -i 21 -a 2 -x {3.1 4.0 11 ------- null}
- -t 0.21164 -s 2 -d 0 -p cbr -e 1000 -c 2 -i 21 -a 2 -x {3.1 4.0 11 ------- null}
h -t 0.21164 -s 2 -d 0 -p cbr -e 1000 -c 2 -i 21 -a 2 -x {3.1 4.0 -1 ------- null}
r -t 0.21196 -s 3 -d 2 -p ack -e 40 -c 1 -i 22 -a 1 -x {3.0 0.0 3 ------- null}
+ -t 0.21196 -s 2 -d 0 -p ack -e 40 -c 1 -i 22 -a 1 -x {3.0 0.0 3 ------- null}
+ -t 0.212 -s 3 -d 2 -p cbr -e 1000 -c 2 -i 27 -a 2 -x {3.1 4.0 14 ------- null}
- -t 0.21328 -s 3 -d 2 -p ack -e 40 -c 1 -i 26 -a 1 -x {3.0 0.0 5 ------- null}
h -t 0.21328 -s 3 -d 2 -p ack -e 40 -c 1 -i 26 -a 1 -x {3.0 0.0 -1 ------- null}
- -t 0.2136 -s 3 -d 2 -p cbr -e 1000 -c 2 -i 27 -a 2 -x {3.1 4.0 14 ------- null}
h -t 0.2136 -s 3 -d 2 -p cbr -e 1000 -c 2 -i 27 -a 2 -x {3.1 4.0 -1 ------- null}
r -t 0.21764 -s 0 -d 4 -p cbr -e 1000 -c 2 -i 14 -a 2 -x {3.1 4.0 6 ------- null}
r -t 0.21792 -s 2 -d 3 -p tcp -e 1040 -c 1 -i 17 -a 1 -x {0.0 3.0 6 ------- null}
+ -t 0.21792 -s 3 -d 2 -p ack -e 40 -c 1 -i 28 -a 1 -x {3.0 0.0 6 ------- null}
r -t 0.21864 -s 2 -d 0 -p cbr -e 1000 -c 2 -i 19 -a 2 -x {3.1 4.0 9 ------- null}
+ -t 0.21864 -s 0 -d 4 -p cbr -e 1000 -c 2 -i 19 -a 2 -x {3.1 4.0 9 ------- null}
- -t 0.21864 -s 0 -d 4 -p cbr -e 1000 -c 2 -i 19 -a 2 -x {3.1 4.0 9 ------- null}
h -t 0.21864 -s 0 -d 4 -p cbr -e 1000 -c 2 -i 19 -a 2 -x {3.1 4.0 -1 ------- null}
- -t 0.21964 -s 2 -d 0 -p ack -e 40 -c 1 -i 22 -a 1 -x {3.0 0.0 3 ------- null}
h -t 0.21964 -s 2 -d 0 -p ack -e 40 -c 1 -i 22 -a 1 -x {3.0 0.0 -1 ------- null}
r -t 0.21996 -s 3 -d 2 -p cbr -e 1000 -c 2 -i 23 -a 2 -x {3.1 4.0 12 ------- null}
+ -t 0.21996 -s 2 -d 0 -p cbr -e 1000 -c 2 -i 23 -a 2 -x {3.1 4.0 12 ------- null}
- -t 0.21996 -s 2 -d 0 -p cbr -e 1000 -c 2 -i 23 -a 2 -x {3.1 4.0 12 ------- null}
h -t 0.21996 -s 2 -d 0 -p cbr -e 1000 -c 2 -i 23 -a 2 -x {3.1 4.0 -1 ------- null}
+ -t 0.22 -s 3 -d 2 -p cbr -e 1000 -c 2 -i 29 -a 2 -x {3.1 4.0 15 ------- null}
r -t 0.22028 -s 3 -d 2 -p ack -e 40 -c 1 -i 24 -a 1 -x {3.0 0.0 4 ------- null}
+ -t 0.22028 -s 2 -d 0 -p ack -e 40 -c 1 -i 24 -a 1 -x {3.0 0.0 4 ------- null}
- -t 0.2216 -s 3 -d 2 -p ack -e 40 -c 1 -i 28 -a 1 -x {3.0 0.0 6 ------- null}
h -t 0.2216 -s 3 -d 2 -p ack -e 40 -c 1 -i 28 -a 1 -x {3.0 0.0 -1 ------- null}
- -t 0.22192 -s 3 -d 2 -p cbr -e 1000 -c 2 -i 29 -a 2 -x {3.1 4.0 15 ------- null}
h -t 0.22192 -s 3 -d 2 -p cbr -e 1000 -c 2 -i 29 -a 2 -x {3.1 4.0 -1 ------- null}
r -t 0.22564 -s 0 -d 4 -p cbr -e 1000 -c 2 -i 15 -a 2 -x {3.1 4.0 7 ------- null}
r -t 0.22664 -s 2 -d 0 -p cbr -e 1000 -c 2 -i 20 -a 2 -x {3.1 4.0 10 ------- null}
+ -t 0.22664 -s 0 -d 4 -p cbr -e 1000 -c 2 -i 20 -a 2 -x {3.1 4.0 10 ------- null}
- -t 0.22664 -s 0 -d 4 -p cbr -e 1000 -c 2 -i 20 -a 2 -x {3.1 4.0 10 ------- null}
h -t 0.22664 -s 0 -d 4 -p cbr -e 1000 -c 2 -i 20 -a 2 -x {3.1 4.0 -1 ------- null}
- -t 0.22796 -s 2 -d 0 -p ack -e 40 -c 1 -i 24 -a 1 -x {3.0 0.0 4 ------- null}
h -t 0.22796 -s 2 -d 0 -p ack -e 40 -c 1 -i 24 -a 1 -x {3.0 0.0 -1 ------- null}
+ -t 0.228 -s 3 -d 2 -p cbr -e 1000 -c 2 -i 30 -a 2 -x {3.1 4.0 16 ------- null}
r -t 0.22828 -s 3 -d 2 -p cbr -e 1000 -c 2 -i 25 -a 2 -x {3.1 4.0 13 ------- null}
+ -t 0.22828 -s 2 -d 0 -p cbr -e 1000 -c 2 -i 25 -a 2 -x {3.1 4.0 13 ------- null}
- -t 0.22828 -s 2 -d 0 -p cbr -e 1000 -c 2 -i 25 -a 2 -x {3.1 4.0 13 ------- null}
h -t 0.22828 -s 2 -d 0 -p cbr -e 1000 -c 2 -i 25 -a 2 -x {3.1 4.0 -1 ------- null}
r -t 0.2286 -s 3 -d 2 -p ack -e 40 -c 1 -i 26 -a 1 -x {3.0 0.0 5 ------- null}
+ -t 0.2286 -s 2 -d 0 -p ack -e 40 -c 1 -i 26 -a 1 -x {3.0 0.0 5 ------- null}
- -t 0.22992 -s 3 -d 2 -p cbr -e 1000 -c 2 -i 30 -a 2 -x {3.1 4.0 16 ------- null}
h -t 0.22992 -s 3 -d 2 -p cbr -e 1000 -c 2 -i 30 -a 2 -x {3.1 4.0 -1 ------- null}
r -t 0.23364 -s 0 -d 4 -p cbr -e 1000 -c 2 -i 18 -a 2 -x {3.1 4.0 8 ------- null}
r -t 0.23464 -s 2 -d 0 -p cbr -e 1000 -c 2 -i 21 -a 2 -x {3.1 4.0 11 ------- null}
+ -t 0.23464 -s 0 -d 4 -p cbr -e 1000 -c 2 -i 21 -a 2 -x {3.1 4.0 11 ------- null}
- -t 0.23464 -s 0 -d 4 -p cbr -e 1000 -c 2 -i 21 -a 2 -x {3.1 4.0 11 ------- null}
h -t 0.23464 -s 0 -d 4 -p cbr -e 1000 -c 2 -i 21 -a 2 -x {3.1 4.0 -1 ------- null}
r -t 0.23496 -s 2 -d 0 -p ack -e 40 -c 1 -i 22 -a 1 -x {3.0 0.0 3 ------- null}
+ -t 0.23496 -s 0 -d 2 -p tcp -e 1040 -c 1 -i 31 -a 1 -x {0.0 3.0 7 ------- null}
- -t 0.23496 -s 0 -d 2 -p tcp -e 1040 -c 1 -i 31 -a 1 -x {0.0 3.0 7 ------- null}
h -t 0.23496 -s 0 -d 2 -p tcp -e 1040 -c 1 -i 31 -a 1 -x {0.0 3.0 -1 ------- null}
+ -t 0.23496 -s 0 -d 2 -p tcp -e 1040 -c 1 -i 32 -a 1 -x {0.0 3.0 8 ------- null}
+ -t 0.236 -s 3 -d 2 -p cbr -e 1000 -c 2 -i 33 -a 2 -x {3.1 4.0 17 ------- null}
- -t 0.23628 -s 2 -d 0 -p ack -e 40 -c 1 -i 26 -a 1 -x {3.0 0.0 5 ------- null}
h -t 0.23628 -s 2 -d 0 -p ack -e 40 -c 1 -i 26 -a 1 -x {3.0 0.0 -1 ------- null}
r -t 0.2366 -s 3 -d 2 -p cbr -e 1000 -c 2 -i 27 -a 2 -x {3.1 4.0 14 ------- null}
+ -t 0.2366 -s 2 -d 0 -p cbr -e 1000 -c 2 -i 27 -a 2 -x {3.1 4.0 14 ------- null}
- -t 0.2366 -s 2 -d 0 -p cbr -e 1000 -c 2 -i 27 -a 2 -x {3.1 4.0 14 ------- null}
h -t 0.2366 -s 2 -d 0 -p cbr -e 1000 -c 2 -i 27 -a 2 -x {3.1 4.0 -1 ------- null}
r -t 0.23692 -s 3 -d 2 -p ack -e 40 -c 1 -i 28 -a 1 -x {3.0 0.0 6 ------- null}
+ -t 0.23692 -s 2 -d 0 -p ack -e 40 -c 1 -i 28 -a 1 -x {3.0 0.0 6 ------- null}
- -t 0.23792 -s 3 -d 2 -p cbr -e 1000 -c 2 -i 33 -a 2 -x {3.1 4.0 17 ------- null}
h -t 0.23792 -s 3 -d 2 -p cbr -e 1000 -c 2 -i 33 -a 2 -x {3.1 4.0 -1 ------- null}
r -t 0.24164 -s 0 -d 4 -p cbr -e 1000 -c 2 -i 19 -a 2 -x {3.1 4.0 9 ------- null}
r -t 0.24296 -s 2 -d 0 -p cbr -e 1000 -c 2 -i 23 -a 2 -x {3.1 4.0 12 ------- null}
+ -t 0.24296 -s 0 -d 4 -p cbr -e 1000 -c 2 -i 23 -a 2 -x {3.1 4.0 12 ------- null}
- -t 0.24296 -s 0 -d 4 -p cbr -e 1000 -c 2 -i 23 -a 2 -x {3.1 4.0 12 ------- null}
h -t 0.24296 -s 0 -d 4 -p cbr -e 1000 -c 2 -i 23 -a 2 -x {3.1 4.0 -1 ------- null}
r -t 0.24328 -s 2 -d 0 -p ack -e 40 -c 1 -i 24 -a 1 -x {3.0 0.0 4 ------- null}
+ -t 0.24328 -s 0 -d 2 -p tcp -e 1040 -c 1 -i 34 -a 1 -x {0.0 3.0 9 ------- null}
+ -t 0.24328 -s 0 -d 2 -p tcp -e 1040 -c 1 -i 35 -a 1 -x {0.0 3.0 10 ------- null}
- -t 0.24328 -s 0 -d 2 -p tcp -e 1040 -c 1 -i 32 -a 1 -x {0.0 3.0 8 ------- null}
h -t 0.24328 -s 0 -d 2 -p tcp -e 1040 -c 1 -i 32 -a 1 -x {0.0 3.0 -1 ------- null}
+ -t 0.244 -s 3 -d 2 -p cbr -e 1000 -c 2 -i 36 -a 2 -x {3.1 4.0 18 ------- null}
- -t 0.2446 -s 2 -d 0 -p ack -e 40 -c 1 -i 28 -a 1 -x {3.0 0.0 6 ------- null}
h -t 0.2446 -s 2 -d 0 -p ack -e 40 -c 1 -i 28 -a 1 -x {3.0 0.0 -1 ------- null}
r -t 0.24492 -s 3 -d 2 -p cbr -e 1000 -c 2 -i 29 -a 2 -x {3.1 4.0 15 ------- null}
+ -t 0.24492 -s 2 -d 0 -p cbr -e 1000 -c 2 -i 29 -a 2 -x {3.1 4.0 15 ------- null}
- -t 0.24492 -s 2 -d 0 -p cbr -e 1000 -c 2 -i 29 -a 2 -x {3.1 4.0 15 ------- null}
h -t 0.24492 -s 2 -d 0 -p cbr -e 1000 -c 2 -i 29 -a 2 -x {3.1 4.0 -1 ------- null}
- -t 0.24592 -s 3 -d 2 -p cbr -e 1000 -c 2 -i 36 -a 2 -x {3.1 4.0 18 ------- null}
h -t 0.24592 -s 3 -d 2 -p cbr -e 1000 -c 2 -i 36 -a 2 -x {3.1 4.0 -1 ------- null}
r -t 0.24964 -s 0 -d 4 -p cbr -e 1000 -c 2 -i 20 -a 2 -x {3.1 4.0 10 ------- null}
r -t 0.25128 -s 2 -d 0 -p cbr -e 1000 -c 2 -i 25 -a 2 -x {3.1 4.0 13 ------- null}
+ -t 0.25128 -s 0 -d 4 -p cbr -e 1000 -c 2 -i 25 -a 2 -x {3.1 4.0 13 ------- null}
- -t 0.25128 -s 0 -d 4 -p cbr -e 1000 -c 2 -i 25 -a 2 -x {3.1 4.0 13 ------- null}
h -t 0.25128 -s 0 -d 4 -p cbr -e 1000 -c 2 -i 25 -a 2 -x {3.1 4.0 -1 ------- null}
r -t 0.2516 -s 2 -d 0 -p ack -e 40 -c 1 -i 26 -a 1 -x {3.0 0.0 5 ------- null}
+ -t 0.2516 -s 0 -d 2 -p tcp -e 1040 -c 1 -i 37 -a 1 -x {0.0 3.0 11 ------- null}
+ -t 0.2516 -s 0 -d 2 -p tcp -e 1040 -c 1 -i 38 -a 1 -x {0.0 3.0 12 ------- null}
- -t 0.2516 -s 0 -d 2 -p tcp -e 1040 -c 1 -i 34 -a 1 -x {0.0 3.0 9 ------- null}
h -t 0.2516 -s 0 -d 2 -p tcp -e 1040 -c 1 -i 34 -a 1 -x {0.0 3.0 -1 ------- null}
+ -t 0.252 -s 3 -d 2 -p cbr -e 1000 -c 2 -i 39 -a 2 -x {3.1 4.0 19 ------- null}
r -t 0.25292 -s 3 -d 2 -p cbr -e 1000 -c 2 -i 30 -a 2 -x {3.1 4.0 16 ------- null}
+ -t 0.25292 -s 2 -d 0 -p cbr -e 1000 -c 2 -i 30 -a 2 -x {3.1 4.0 16 ------- null}
- -t 0.25292 -s 2 -d 0 -p cbr -e 1000 -c 2 -i 30 -a 2 -x {3.1 4.0 16 ------- null}
h -t 0.25292 -s 2 -d 0 -p cbr -e 1000 -c 2 -i 30 -a 2 -x {3.1 4.0 -1 ------- null}
- -t 0.25392 -s 3 -d 2 -p cbr -e 1000 -c 2 -i 39 -a 2 -x {3.1 4.0 19 ------- null}
h -t 0.25392 -s 3 -d 2 -p cbr -e 1000 -c 2 -i 39 -a 2 -x {3.1 4.0 -1 ------- null}
r -t 0.25764 -s 0 -d 4 -p cbr -e 1000 -c 2 -i 21 -a 2 -x {3.1 4.0 11 ------- null}
r -t 0.25828 -s 0 -d 2 -p tcp -e 1040 -c 1 -i 31 -a 1 -x {0.0 3.0 7 ------- null}
+ -t 0.25828 -s 2 -d 3 -p tcp -e 1040 -c 1 -i 31 -a 1 -x {0.0 3.0 7 ------- null}
- -t 0.25828 -s 2 -d 3 -p tcp -e 1040 -c 1 -i 31 -a 1 -x {0.0 3.0 7 ------- null}
h -t 0.25828 -s 2 -d 3 -p tcp -e 1040 -c 1 -i 31 -a 1 -x {0.0 3.0 -1 ------- null}
r -t 0.2596 -s 2 -d 0 -p cbr -e 1000 -c 2 -i 27 -a 2 -x {3.1 4.0 14 ------- null}
+ -t 0.2596 -s 0 -d 4 -p cbr -e 1000 -c 2 -i 27 -a 2 -x {3.1 4.0 14 ------- null}
- -t 0.2596 -s 0 -d 4 -p cbr -e 1000 -c 2 -i 27 -a 2 -x {3.1 4.0 14 ------- null}
h -t 0.2596 -s 0 -d 4 -p cbr -e 1000 -c 2 -i 27 -a 2 -x {3.1 4.0 -1 ------- null}
r -t 0.25992 -s 2 -d 0 -p ack -e 40 -c 1 -i 28 -a 1 -x {3.0 0.0 6 ------- null}
+ -t 0.25992 -s 0 -d 2 -p tcp -e 1040 -c 1 -i 40 -a 1 -x {0.0 3.0 13 ------- null}
+ -t 0.25992 -s 0 -d 2 -p tcp -e 1040 -c 1 -i 41 -a 1 -x {0.0 3.0 14 ------- null}
- -t 0.25992 -s 0 -d 2 -p tcp -e 1040 -c 1 -i 35 -a 1 -x {0.0 3.0 10 ------- null}
h -t 0.25992 -s 0 -d 2 -p tcp -e 1040 -c 1 -i 35 -a 1 -x {0.0 3.0 -1 ------- null}
+ -t 0.26 -s 3 -d 2 -p cbr -e 1000 -c 2 -i 42 -a 2 -x {3.1 4.0 20 ------- null}
r -t 0.26092 -s 3 -d 2 -p cbr -e 1000 -c 2 -i 33 -a 2 -x {3.1 4.0 17 ------- null}
+ -t 0.26092 -s 2 -d 0 -p cbr -e 1000 -c 2 -i 33 -a 2 -x {3.1 4.0 17 ------- null}
- -t 0.26092 -s 2 -d 0 -p cbr -e 1000 -c 2 -i 33 -a 2 -x {3.1 4.0 17 ------- null}
h -t 0.26092 -s 2 -d 0 -p cbr -e 1000 -c 2 -i 33 -a 2 -x {3.1 4.0 -1 ------- null}
- -t 0.26192 -s 3 -d 2 -p cbr -e 1000 -c 2 -i 42 -a 2 -x {3.1 4.0 20 ------- null}
h -t 0.26192 -s 3 -d 2 -p cbr -e 1000 -c 2 -i 42 -a 2 -x {3.1 4.0 -1 ------- null}
r -t 0.26596 -s 0 -d 4 -p cbr -e 1000 -c 2 -i 23 -a 2 -x {3.1 4.0 12 ------- null}
r -t 0.2666 -s 0 -d 2 -p tcp -e 1040 -c 1 -i 32 -a 1 -x {0.0 3.0 8 ------- null}
+ -t 0.2666 -s 2 -d 3 -p tcp -e 1040 -c 1 -i 32 -a 1 -x {0.0 3.0 8 ------- null}
- -t 0.2666 -s 2 -d 3 -p tcp -e 1040 -c 1 -i 32 -a 1 -x {0.0 3.0 8 ------- null}
h -t 0.2666 -s 2 -d 3 -p tcp -e 1040 -c 1 -i 32 -a 1 -x {0.0 3.0 -1 ------- null}
r -t 0.26792 -s 2 -d 0 -p cbr -e 1000 -c 2 -i 29 -a 2 -x {3.1 4.0 15 ------- null}
+ -t 0.26792 -s 0 -d 4 -p cbr -e 1000 -c 2 -i 29 -a 2 -x {3.1 4.0 15 ------- null}
- -t 0.26792 -s 0 -d 4 -p cbr -e 1000 -c 2 -i 29 -a 2 -x {3.1 4.0 15 ------- null}
h -t 0.26792 -s 0 -d 4 -p cbr -e 1000 -c 2 -i 29 -a 2 -x {3.1 4.0 -1 ------- null}
+ -t 0.268 -s 3 -d 2 -p cbr -e 1000 -c 2 -i 43 -a 2 -x {3.1 4.0 21 ------- null}
- -t 0.26824 -s 0 -d 2 -p tcp -e 1040 -c 1 -i 37 -a 1 -x {0.0 3.0 11 ------- null}
h -t 0.26824 -s 0 -d 2 -p tcp -e 1040 -c 1 -i 37 -a 1 -x {0.0 3.0 -1 ------- null}
r -t 0.26892 -s 3 -d 2 -p cbr -e 1000 -c 2 -i 36 -a 2 -x {3.1 4.0 18 ------- null}
+ -t 0.26892 -s 2 -d 0 -p cbr -e 1000 -c 2 -i 36 -a 2 -x {3.1 4.0 18 ------- null}
- -t 0.26892 -s 2 -d 0 -p cbr -e 1000 -c 2 -i 36 -a 2 -x {3.1 4.0 18 ------- null}
h -t 0.26892 -s 2 -d 0 -p cbr -e 1000 -c 2 -i 36 -a 2 -x {3.1 4.0 -1 ------- null}
- -t 0.26992 -s 3 -d 2 -p cbr -e 1000 -c 2 -i 43 -a 2 -x {3.1 4.0 21 ------- null}
h -t 0.26992 -s 3 -d 2 -p cbr -e 1000 -c 2 -i 43 -a 2 -x {3.1 4.0 -1 ------- null}
r -t 0.27428 -s 0 -d 4 -p cbr -e 1000 -c 2 -i 25 -a 2 -x {3.1 4.0 13 ------- null}